LAMMPS data file via write_data, version 27 Feb 2020, timestep = 1560000

3130 atoms
20 atom types
3046 bonds
25 bond types
4208 angles
37 angle types
5521 dihedrals
57 dihedral types

3.2305173293182300e+01 6.7245327706816624e+01 xlo xhi
3.2579795288886920e+01 6.7378205711114873e+01 ylo yhi
3.2501283050560353e+01 6.7340216949432516e+01 zlo zhi

Masses

1 13.019
2 13.019
3 13.019
4 13.019
5 13.019
6 14.027
7 14.027
8 12.011
9 1.008
10 1.008
11 15.9994
12 15.9994
13 15.9994
14 15.9994
15 15.9994
16 15.9994
17 15.9994
18 15.9994
19 15.9994
20 22.9898

Pair Coeffs # lj/cut/coul/long

1 0.0750335 3.8004
2 0.0750335 3.8004
3 0.0750335 3.8004
4 0.0750335 3.8004
5 0.0750335 3.8004
6 0.117015 3.9199
7 0.117015 3.9199
8 0.0970053 3.3611
9 0 0
10 0 0
11 0.241551 2.8706
12 0.241551 2.8706
13 0.241551 2.8706
14 0.241551 2.8706
15 0.241551 2.8706
16 0.241551 2.8706
17 0.241551 2.8706
18 0.241551 2.8706
19 0.41239 2.6259
20 0.0855641 2.73

Bond Coeffs # harmonic

1 461.1 1.52
2 309 1
3 376.6 1.435
4 376.6 1.435
5 461.1 1.52
6 376.6 1.435
7 376.6 1.435
8 461.1 1.52
9 376.6 1.435
10 376.6 1.435
11 461.1 1.52
12 376.6 1.435
13 461.1 1.52
14 376.6 1.435
15 376.6 1.435
16 376.6 1.435
17 222.5 1.53
18 376.6 1.435
19 376.6 1.435
20 376.6 1.435
21 428 1.25
22 545 1
23 545 1
24 545 1
25 545 1

Angle Coeffs # harmonic

1 68.1167 109.5
2 76.4819 109.5
3 76.4819 109.5
4 90.8223 109.5
5 90.8223 109.5
6 0 0
7 76.4819 109.5
8 76.4819 109.5
9 68.1167 109.5
10 76.4819 109.5
11 76.4819 109.5
12 107.553 109.5
13 90.8223 109.5
14 76.4819 109.5
15 76.4819 109.5
16 68.1167 109.5
17 76.4819 109.5
18 107.553 109.5
19 90.8223 109.5
20 76.4819 109.5
21 76.4819 109.5
22 68.1167 109.5
23 76.4819 109.5
24 0 0
25 76.4819 109.5
26 76.4819 109.5
27 76.4819 109.5
28 76.4819 109.5
29 107.553 109.5
30 90.8223 109.5
31 151.769 117
32 124.283 109.5
33 124.283 109.5
34 124.283 109.5
35 0 0
36 68.1167 109.5
37 184.035 126

Dihedral Coeffs # fourier

1 1 2.80115 3 60
2 1 0.199809 2 90
3 1 0.199809 2 90
4 1 0.602295 3 60
5 1 0 0 0
6 1 0 0 0
7 1 1.80211 3 60
8 1 2.80115 3 60
9 1 0.199809 2 90
10 1 0.602295 3 60
11 1 1.80211 3 60
12 1 0 0 0
13 1 0 0 0
14 1 2.80115 3 60
15 1 0.199809 2 90
16 1 1.80211 3 60
17 1 0 0 0
18 1 0.602295 3 60
19 1 0 0 0
20 1 2.80115 3 60
21 1 2.80115 3 60
22 1 1.80211 3 60
23 1 0 0 0
24 1 0 0 0
25 1 0.602295 3 60
26 1 0 0 0
27 1 0 0 0
28 1 1.80211 3 60
29 1 1.80211 3 60
30 1 1.80211 3 60
31 1 0 0 0
32 1 0 0 0
33 1 0 0 0
34 1 0.199809 2 90
35 1 0 0 0
36 1 0 0 0
37 1 0.199809 2 90
38 1 0 0 0
39 1 0.478012 6 0
40 1 0.199809 2 90
41 1 0.199809 2 90
42 1 0.199809 2 90
43 1 0.199809 2 90
44 1 0.478012 6 0
45 1 2.80115 3 60
46 1 0.999045 2 90
47 1 0.999045 2 90
48 1 0 0 0
49 1 0.199809 2 90
50 1 0 0 0
51 1 0.199809 2 90
52 1 0.999045 2 90
53 1 0.999045 2 90
54 1 0 0 0
55 1 0.999045 2 90
56 1 0.999045 2 90
57 1 0.478012 6 0

Atoms # full

1115 61 7 2.0799999999999999e-01 3.6510233360641919e+01 3.7462362296954943e+01 3.6727181919732743e+01 1 1 0
1121 61 19 -6.3500000000000001e-01 3.7534418539319610e+01 3.5866684649597033e+01 3.5300856522908177e+01 1 1 0
1112 61 18 -3.5799999999999998e-01 3.7652545746071681e+01 3.8311139474117951e+01 3.6501209886204109e+01 1 1 0
1118 61 8 2.7000000000000002e-01 3.6836950825091165e+01 3.6031352608916528e+01 3.6309798457471302e+01 1 1 0
1122 61 19 -6.3500000000000001e-01 3.6835659502219727e+01 3.5223766283568125e+01 3.7275864581565358e+01 1 1 0
2668 143 7 2.0799999999999999e-01 3.4521400447949659e+01 3.5511938287383700e+01 3.3785234512701095e+01 1 1 1
2976 235 20 1.0000000000000000e+00 3.9178800307459817e+01 3.5789977247081772e+01 3.7055655315201200e+01 0 1 0
2671 143 8 2.7000000000000002e-01 3.3960462669898490e+01 3.4335920081883479e+01 3.4528938931070925e+01 1 1 1
1108 61 6 1.4999999999999999e-01 3.7336810599376967e+01 3.9670356486589014e+01 3.6869617861341332e+01 1 1 0
2666 143 18 -3.5799999999999998e-01 3.4389673660827825e+01 3.9609984752102442e+01 3.4476919394890196e+01 1 1 1
1105 61 5 1.6000000000000000e-01 3.7891273202030405e+01 4.0737066456101758e+01 3.5900935208218492e+01 1 1 0
1107 61 16 -3.5999999999999999e-01 3.9226773426470622e+01 4.0350235328046693e+01 3.5436613300213580e+01 1 1 0
1348 73 11 -5.4800000000000004e-01 3.3559369606981143e+01 3.8711762464529258e+01 3.7768351563475960e+01 1 1 0
1342 73 16 -3.5999999999999999e-01 3.4544649600470272e+01 3.6155391543697647e+01 3.9144366748880003e+01 1 1 0
1346 73 1 4.0000000000000002e-01 3.3286612155451188e+01 3.6853071976181511e+01 3.9325871524268841e+01 1 1 0
1344 73 2 1.4999999999999999e-01 3.3521512044865752e+01 3.8360076641796056e+01 3.9167542010668264e+01 1 1 0
1338 73 4 1.6000000000000000e-01 3.5894259066835197e+01 3.7998124804609020e+01 3.9987513389009159e+01 1 1 0
1340 73 3 1.4999999999999999e-01 3.4696312673089068e+01 3.8928666305254715e+01 4.0009157147943576e+01 1 1 0
1339 73 5 1.6000000000000000e-01 3.5473910421974040e+01 3.6527239075198409e+01 4.0160942551507347e+01 1 1 0
1359 74 16 -3.5999999999999999e-01 3.8792046402267580e+01 3.8493390668673406e+01 3.9330372401053452e+01 1 1 0
1345 73 13 -5.4800000000000004e-01 3.5019248657915462e+01 4.0173091086049894e+01 3.9382485049832312e+01 1 1 0
2930 189 20 1.0000000000000000e+00 3.4850943519837941e+01 3.3980340722060802e+01 3.7766302555801033e+01 1 1 0
1387 75 19 -6.3500000000000001e-01 3.9369522419337166e+01 3.4486380711766543e+01 3.9108372174531191e+01 1 1 0
2662 143 6 1.4999999999999999e-01 3.3265171497416617e+01 4.0446237113509689e+01 3.4212223562422608e+01 1 1 1
3076 335 20 1.0000000000000000e+00 3.8524597536180224e+01 3.7895417142916116e+01 3.4279216625361748e+01 0 1 0
1386 75 8 2.7000000000000002e-01 3.9998919433555585e+01 3.3646587113220704e+01 3.9806360006485086e+01 1 1 0
2676 143 19 -6.3500000000000001e-01 3.6288719653206449e+01 3.8039259547267875e+01 3.3341455432294381e+01 1 1 1
1349 73 10 3.9800000000000002e-01 3.4735436505211936e+01 4.0137681004891576e+01 3.8409997541931787e+01 1 1 0
2669 143 7 2.0799999999999999e-01 3.5500430907474581e+01 4.0309222223914404e+01 3.3990327825373555e+01 1 1 1
2672 143 8 2.7000000000000002e-01 3.6536341691403763e+01 3.9267948928325474e+01 3.3298650098227256e+01 1 1 1
1371 74 19 -6.3500000000000001e-01 4.0098198842635405e+01 3.6375861292676227e+01 3.5077934929353589e+01 1 1 0
1356 74 5 1.6000000000000000e-01 4.0214857318904180e+01 3.8877021602776402e+01 3.9297923774893519e+01 1 1 0
1351 73 10 3.9800000000000002e-01 3.2573779426002005e+01 3.8901854350085223e+01 3.7506500083448564e+01 1 1 0
2675 143 19 -6.3500000000000001e-01 3.7646295647155732e+01 3.9717064957212543e+01 3.3032761673366025e+01 1 1 1
1363 74 1 4.0000000000000002e-01 3.8301359372614741e+01 3.8342086818480155e+01 4.0692801469201271e+01 1 1 0
1347 73 18 -3.5799999999999998e-01 3.6394473030742155e+01 3.4250424485722455e+01 4.0016723864612757e+01 1 1 0
2660 143 3 1.4999999999999999e-01 3.2819016146272368e+01 3.7199816707988802e+01 3.3730199943165033e+01 1 1 1
3099 358 20 1.0000000000000000e+00 3.6783307847067405e+01 3.3576344391983014e+01 3.5005294685623916e+01 1 1 1
1343 73 6 1.4999999999999999e-01 3.6659471834167753e+01 3.5649795811056045e+01 4.0310039486230963e+01 1 1 0
2674 143 19 -6.3500000000000001e-01 3.4458185391084449e+01 3.4094201924239293e+01 3.5619444956059027e+01 1 1 1
2673 143 19 -6.3500000000000001e-01 3.2935142748979715e+01 3.3828202886568441e+01 3.4025069827702595e+01 1 1 1
1364 74 18 -3.5799999999999998e-01 4.0585430033329814e+01 3.8163953699479862e+01 3.7023719016669027e+01 1 1 0
1341 73 15 -3.5999999999999999e-01 3.6842731397138358e+01 3.8505081607218365e+01 4.0974333061619696e+01 1 1 0
2993 252 20 1.0000000000000000e+00 4.1034244055577410e+01 3.4273001003406890e+01 3.4363984505348903e+01 1 1 1
1111 61 1 4.0000000000000002e-01 3.9639347315905667e+01 4.1150322839008211e+01 3.4283760228597089e+01 1 1 0
1385 75 10 3.9800000000000002e-01 4.0781222434216872e+01 3.4389563070625961e+01 3.8350607220390700e+01 1 1 0
2664 143 14 -3.5799999999999998e-01 3.3439830188964308e+01 3.6114326000909905e+01 3.3014939267608973e+01 1 1 1
2658 143 4 1.6000000000000000e-01 3.2472681401412409e+01 3.8307165711626126e+01 3.2762527332395599e+01 1 1 1
1360 74 6 1.4999999999999999e-01 4.0885531385084732e+01 3.9172886895848073e+01 3.7940237775896087e+01 1 1 0
1424 77 19 -6.3500000000000001e-01 3.8857916466686014e+01 3.2873303388379533e+01 3.4414345576278926e+01 1 1 0
1324 72 15 -3.5999999999999999e-01 3.2321111581372087e+01 3.6377937639755864e+01 3.8330500366327755e+01 1 1 0
1425 77 19 -6.3500000000000001e-01 3.9511773062421902e+01 3.2670745297722917e+01 3.6570332268981993e+01 1 1 1
1116 61 10 3.9800000000000002e-01 3.8996021819137553e+01 4.3402714380969364e+01 3.2756155565165137e+01 1 1 0
1063 58 19 -6.3500000000000001e-01 4.0026180839419325e+01 4.7342842897832810e+01 3.4394861862682205e+01 0 1 0
1060 58 8 2.7000000000000002e-01 3.9853745552959282e+01 4.7957121663497020e+01 3.3329549483143680e+01 0 1 0
1104 61 4 1.6000000000000000e-01 3.7798680725426060e+01 4.2207259175314569e+01 3.6367261526455486e+01 1 1 0
939 52 6 1.4999999999999999e-01 3.4614589430703106e+01 4.9279257259912981e+01 3.6158326318121475e+01 0 1 0
1002 55 10 3.9800000000000002e-01 4.0140322209123539e+01 4.6247445229890801e+01 3.8264304501682069e+01 0 1 0
935 52 5 1.6000000000000000e-01 3.3202996430386492e+01 4.9363657922617804e+01 3.5512664512347811e+01 0 1 0
1102 61 9 3.7300000000000000e-01 3.5770697925689433e+01 4.3112562499173571e+01 3.6599776431466893e+01 1 1 0
3012 271 20 1.0000000000000000e+00 3.6913766739452399e+01 4.8742143012470670e+01 3.3665266113309691e+01 0 1 0
1103 61 15 -5.7299999999999995e-01 3.6553111011672279e+01 4.2605288676696404e+01 3.6950248744266815e+01 1 1 0
1081 59 19 -6.3500000000000001e-01 3.9908245880206735e+01 4.4775187205332827e+01 3.8305566647230442e+01 1 1 0
1109 61 2 1.4999999999999999e-01 3.9343459267726331e+01 4.2629174178361779e+01 3.4520143139401405e+01 1 1 0
1106 61 3 1.4999999999999999e-01 3.7992109150962989e+01 4.2903166728125726e+01 3.5049055693126128e+01 1 1 0
1117 61 8 2.7000000000000002e-01 3.6249024592567679e+01 4.5969961701768675e+01 3.4014218573420337e+01 1 1 0
1110 61 14 -3.5799999999999998e-01 3.7711402027474534e+01 4.4357324575966565e+01 3.5055890488326348e+01 1 1 0
1114 61 7 2.0799999999999999e-01 3.6791152990852936e+01 4.4487975951937436e+01 3.3993284222328477e+01 1 1 0
3064 323 20 1.0000000000000000e+00 3.3714344313114914e+01 4.5607202846415653e+01 3.4621683603170602e+01 0 1 0
3098 357 20 1.0000000000000000e+00 3.8323089950287915e+01 4.6700732183746723e+01 3.6209059399230995e+01 1 1 0
989 54 19 -6.3500000000000001e-01 3.3430661858707815e+01 4.5887364653480788e+01 3.7081842130536479e+01 0 1 0
988 54 8 2.7000000000000002e-01 3.4276229784321501e+01 4.5000076582191646e+01 3.7156824554998209e+01 0 1 0
823 45 6 1.4999999999999999e-01 3.8240847171257847e+01 4.2018804296154570e+01 4.0191215327341936e+01 0 1 0
990 54 19 -6.3500000000000001e-01 3.4516877628821042e+01 4.4190245883270215e+01 3.6305774630121022e+01 0 1 0
1004 55 10 3.9800000000000002e-01 3.8229925729698522e+01 4.5839934224909797e+01 3.9048007217255133e+01 0 1 0
1001 55 11 -5.4800000000000004e-01 3.7894117301485089e+01 4.6759799166395105e+01 3.8789558907972598e+01 0 1 0
986 54 7 2.0799999999999999e-01 3.5219528351863538e+01 4.5140108466833830e+01 3.8295746737796243e+01 0 1 0
997 55 2 1.4999999999999999e-01 3.8513618581017028e+01 4.7749260143572656e+01 3.9628059048914537e+01 0 1 0
979 54 6 1.4999999999999999e-01 3.4954481522342320e+01 4.7053121131611270e+01 3.9577891893907228e+01 0 1 0
983 54 18 -3.5799999999999998e-01 3.4569167726689649e+01 4.5702000099343834e+01 3.9389260493231838e+01 0 1 0
993 55 3 1.4999999999999999e-01 3.9912067242902424e+01 4.8047949147112192e+01 3.9125385151025476e+01 0 1 0
1080 59 19 -6.3500000000000001e-01 4.0157244198250503e+01 4.5269474934679664e+01 3.6221615134599546e+01 1 1 0
1113 61 11 -5.4800000000000004e-01 3.9721287063544615e+01 4.3468497177889788e+01 3.3440529525840880e+01 1 1 0
998 55 13 -5.4800000000000004e-01 4.0272775591077355e+01 4.7227602581429579e+01 3.8009882598032071e+01 0 1 0
1079 59 8 2.7000000000000002e-01 4.0315648472909722e+01 4.4484460032395980e+01 3.7156952158756681e+01 1 1 0
1041 57 19 -6.3500000000000001e-01 3.8141181298292551e+01 4.9051661079972746e+01 3.5826310158195419e+01 0 1 0
1119 61 19 -6.3500000000000001e-01 3.6263288262445052e+01 4.6631205431740334e+01 3.5062658631170173e+01 1 1 0
827 45 17 -5.4800000000000004e-01 3.9308765393480762e+01 4.3049975345042533e+01 4.0380319190425283e+01 0 1 0
830 45 10 3.9800000000000002e-01 3.9373108314066307e+01 4.3641945984785870e+01 3.9602237580845483e+01 0 1 0
975 54 5 1.6000000000000000e-01 3.4837686068664162e+01 4.7537385106553934e+01 4.0947867387737638e+01 0 1 0
999 55 1 4.0000000000000002e-01 3.8534757555542164e+01 4.7151075330803458e+01 4.1054720665764293e+01 0 1 0
1120 61 19 -6.3500000000000001e-01 3.5955630721705994e+01 4.6330314971857945e+01 3.2857651611345851e+01 1 1 0
992 55 5 1.6000000000000000e-01 4.0976854781820151e+01 4.6906470759900316e+01 4.0950156185249483e+01 0 1 0
994 55 15 -3.5999999999999999e-01 4.0804943715475254e+01 4.9405641077122155e+01 4.0937195466907582e+01 0 1 0
1064 58 19 -6.3500000000000001e-01 3.8938775920586046e+01 4.7595030071565361e+01 3.2561021013162190e+01 0 1 0
1037 57 8 2.7000000000000002e-01 3.8929639831593057e+01 4.9624701639920914e+01 3.6563870548985115e+01 0 1 0
2963 222 20 1.0000000000000000e+00 4.0456975325107081e+01 4.5606456338915194e+01 3.2675045483432960e+01 1 1 0
995 55 16 -3.5999999999999999e-01 3.9663347961080838e+01 4.6204757743117717e+01 4.1017584744933970e+01 0 1 0
991 55 4 1.6000000000000000e-01 4.0986324457765569e+01 4.8228896344426119e+01 4.0140757712136754e+01 0 1 0
788 43 16 -3.5999999999999999e-01 3.3784546068966854e+01 3.8867864894095703e+01 4.9742131179267716e+01 0 1 0
786 43 5 1.6000000000000000e-01 3.5232640953336627e+01 3.9051101410305478e+01 4.9554290995491421e+01 0 1 0
1126 62 3 1.4999999999999999e-01 3.8097488606281175e+01 3.2589419723992705e+01 4.5549633157863383e+01 1 1 1
1889 102 18 -3.5799999999999998e-01 4.0176815553417768e+01 3.2739824885663744e+01 4.8720161486098540e+01 0 0 0
768 42 6 1.4999999999999999e-01 3.2422991113563846e+01 3.5303117833527210e+01 4.5337753231448978e+01 0 1 0
1884 102 4 1.6000000000000000e-01 4.0826562519188144e+01 3.5920365351593475e+01 4.9681910191509360e+01 0 0 0
1130 62 14 -3.5799999999999998e-01 3.7316206809500663e+01 3.2794320114182391e+01 4.6804872587297943e+01 1 1 1
2982 241 20 1.0000000000000000e+00 3.3531506252924693e+01 3.2698874017866778e+01 4.3555788576593308e+01 0 1 0
1125 62 5 1.6000000000000000e-01 4.0442544336300912e+01 3.2597582568239147e+01 4.4647928162298903e+01 1 1 0
1350 73 7 2.0799999999999999e-01 3.6686099356947523e+01 3.3480655806807242e+01 4.1241737480883614e+01 1 1 0
782 42 19 -6.3500000000000001e-01 3.2922015853994409e+01 3.7843877612698911e+01 4.2414596397950042e+01 0 1 0
2969 228 20 1.0000000000000000e+00 3.3004312037678091e+01 4.0603474028913901e+01 4.4389174780725327e+01 0 0 0
1357 74 3 1.4999999999999999e-01 4.0550373909098390e+01 3.7760041856291302e+01 4.1422809649156882e+01 1 1 0
1141 62 19 -6.3500000000000001e-01 3.4813884163641141e+01 3.3119326839066417e+01 4.5339975433103824e+01 1 1 1
1127 62 16 -3.5999999999999999e-01 4.0399645639166472e+01 3.4082111712380915e+01 4.4520037177818622e+01 1 1 0
1885 102 6 1.4999999999999999e-01 3.9425085093136815e+01 3.3893802420550635e+01 4.9035706875898434e+01 0 0 0
783 42 19 -6.3500000000000001e-01 3.3616331233438586e+01 3.8191069158138951e+01 4.4423736912217031e+01 0 1 0
792 43 1 4.0000000000000002e-01 3.3021938865892658e+01 3.8967859921795537e+01 4.8520804791828184e+01 0 1 0
797 43 10 3.9800000000000002e-01 3.4903699358208357e+01 3.9251142202276640e+01 4.6630896414887076e+01 0 1 0
779 42 8 2.7000000000000002e-01 3.3478048897913673e+01 3.7454724636725651e+01 4.3401250104046483e+01 0 1 0
1361 74 2 1.4999999999999999e-01 3.9082185866904183e+01 3.7363886537970245e+01 4.1521340682202087e+01 1 1 0
1135 62 9 3.7300000000000000e-01 3.8073586819508776e+01 3.4897440734383551e+01 4.4922134386902265e+01 1 1 0
1131 62 1 -1.3300000000000001e-01 3.9061745136992698e+01 3.4708007388585571e+01 4.4810459097424996e+01 1 1 1
808 44 16 -3.5999999999999999e-01 3.6851610653974873e+01 3.9677537727244655e+01 4.6957758976333949e+01 0 1 0
812 44 1 4.0000000000000002e-01 3.7560340999810435e+01 4.0044837409110535e+01 4.8119406689975783e+01 0 1 0
806 44 5 1.6000000000000000e-01 3.7544583321109393e+01 3.8837077291743562e+01 4.6001421992733540e+01 0 1 0
1881 102 5 1.6000000000000000e-01 4.0153864445941224e+01 3.5137283361416245e+01 4.8564994767886560e+01 0 0 0
1365 74 11 -5.4800000000000004e-01 3.8840108266871439e+01 3.7170775363844882e+01 4.2858783597136515e+01 1 1 0
1133 62 11 -5.4800000000000004e-01 3.6816593559171892e+01 3.4520116715660322e+01 4.5003526737492002e+01 1 1 1
1137 62 10 3.9800000000000002e-01 3.6030437192809728e+01 3.3907733758278745e+01 4.5116185300013129e+01 1 1 1
3070 329 20 1.0000000000000000e+00 3.5841485266416434e+01 3.5466666171257131e+01 4.7212716368863710e+01 0 1 0
1129 62 2 1.4999999999999999e-01 3.7918601237577803e+01 3.3739559065937584e+01 4.4578589327474575e+01 1 1 1
802 43 19 -6.3500000000000001e-01 3.7087677581505908e+01 3.6790072391117327e+01 4.8509325667591220e+01 0 1 0
813 44 17 -5.4800000000000004e-01 3.5534165735782317e+01 3.7584677898590158e+01 4.5760745932172924e+01 0 1 0
1368 74 10 3.9800000000000002e-01 3.9655311581078635e+01 3.6767357137039667e+01 4.3232327768400538e+01 1 1 0
809 44 6 1.4999999999999999e-01 3.6599189483123070e+01 3.8194083103095991e+01 4.5000094136088009e+01 0 1 0
816 44 10 3.9800000000000002e-01 3.4702028807761316e+01 3.7626056932666216e+01 4.5069954328213242e+01 0 1 0
805 44 4 1.6000000000000000e-01 3.8623427198788995e+01 3.9746114161929476e+01 4.5362711368440337e+01 0 1 0
803 43 19 -6.3500000000000001e-01 3.6257612558291193e+01 3.4826771065140967e+01 4.9219453197994561e+01 0 1 0
799 43 8 2.7000000000000002e-01 3.6792736471400474e+01 3.5959066037146073e+01 4.9390926663366997e+01 0 1 0
790 43 2 1.4999999999999999e-01 3.3507169945588785e+01 4.0183876939253196e+01 4.7728579610262670e+01 0 1 0
794 43 11 -5.4800000000000004e-01 3.4140684418905295e+01 3.9917697517764552e+01 4.6497553617321543e+01 0 1 0
807 44 3 1.4999999999999999e-01 3.9641790556870419e+01 4.0093569536416560e+01 4.6551438934504048e+01 0 1 0
772 42 18 -3.5799999999999998e-01 3.3796848819355866e+01 3.5577970931792279e+01 4.4923340932387433e+01 0 1 0
771 42 15 -3.5999999999999999e-01 3.3126924191088101e+01 3.7776150322196209e+01 4.7740281246518492e+01 0 1 0
775 42 7 2.0799999999999999e-01 3.3802025284767041e+01 3.5981639735956655e+01 4.3517754275833433e+01 0 1 0
785 43 4 1.6000000000000000e-01 3.5432962879589120e+01 4.0518339191556052e+01 4.9218707479598720e+01 0 1 0
810 44 2 1.4999999999999999e-01 3.8886052220670393e+01 4.0711833859879583e+01 4.7792401176971183e+01 0 1 0
822 45 16 -3.5999999999999999e-01 3.8555807954697819e+01 4.0963991887504250e+01 4.2484854752454012e+01 0 1 0
1384 75 7 2.0799999999999999e-01 4.0288546645726015e+01 3.4038646065984011e+01 4.1278202976461948e+01 1 1 0
804 44 15 -3.5999999999999999e-01 3.7996311673121951e+01 4.0941795739866102e+01 4.4822157706946598e+01 0 1 0
811 44 13 -5.4800000000000004e-01 4.0693865780070922e+01 4.0931673385029818e+01 4.6104078562441316e+01 0 1 0
784 43 15 -3.5999999999999999e-01 3.6744612248364419e+01 4.1062275614221150e+01 4.8664456916256491e+01 0 1 0
787 43 3 1.4999999999999999e-01 3.4241180727761495e+01 4.1226119314779709e+01 4.8564385745686458e+01 0 1 0
815 44 10 3.9800000000000002e-01 4.0868111493945179e+01 4.0592488809907849e+01 4.5105739212826151e+01 0 1 0
961 53 15 -3.5999999999999999e-01 3.2418778002349427e+01 4.8981627341008689e+01 4.2998186371490114e+01 0 1 0
819 45 4 1.6000000000000000e-01 3.6682823920749613e+01 4.2700386756473982e+01 4.2137767878207448e+01 0 1 0
978 54 16 -3.5999999999999999e-01 3.3526168113424433e+01 4.7260721920508018e+01 4.1596187590950827e+01 0 1 0
817 44 10 3.9800000000000002e-01 3.9047490045552721e+01 4.2668295320745301e+01 4.8443314505550873e+01 0 1 0
829 45 10 3.9800000000000002e-01 3.5435295204718948e+01 4.4004683910313304e+01 4.3728213156667991e+01 0 1 0
1797 97 10 3.9800000000000002e-01 3.7943652202828872e+01 4.9195366924694603e+01 4.5672644392297741e+01 0 0 0
836 46 16 -3.5999999999999999e-01 3.3276352866410150e+01 4.1340139221966957e+01 4.1935640967784678e+01 0 1 0
1788 97 16 -3.5999999999999999e-01 4.1018798439089871e+01 4.9495206753704458e+01 4.8687521681422751e+01 0 0 0
982 54 1 4.0000000000000002e-01 3.3322034256830733e+01 4.7863162972105698e+01 4.2872852944834037e+01 0 1 0
1798 97 8 2.7000000000000002e-01 3.8323166292292811e+01 4.9686497984891417e+01 4.3832283329616800e+01 0 0 0
1781 96 10 3.9800000000000002e-01 3.6553408814625534e+01 4.6548260272221079e+01 4.7216497366683384e+01 0 0 0
1820 98 19 -6.3500000000000001e-01 4.0503811181592667e+01 4.4682177598658242e+01 4.6086296795177837e+01 0 0 0
985 54 10 3.9800000000000002e-01 3.7541689036095086e+01 4.7840761894630830e+01 4.3959504119941997e+01 0 1 0
843 46 10 3.9800000000000002e-01 3.2448075601602753e+01 4.5653712161238332e+01 4.2071509566356241e+01 0 1 0
838 46 2 1.4999999999999999e-01 3.3698884885758552e+01 4.3781192868513607e+01 4.1908226989598859e+01 0 1 0
1790 97 2 1.4999999999999999e-01 3.9207734361392895e+01 4.9701526308614532e+01 4.7124276954612426e+01 0 0 0
977 54 15 -3.5999999999999999e-01 3.7223896186719792e+01 4.6518830874178832e+01 4.1262360854161813e+01 0 1 0
1773 96 3 1.4999999999999999e-01 3.7871463366916267e+01 4.5732116602426458e+01 4.8352949057572680e+01 0 0 0
821 45 3 1.4999999999999999e-01 3.7336634134215458e+01 4.3687214046455850e+01 4.3131746357869915e+01 0 1 0
800 43 19 -6.3500000000000001e-01 3.2910640847662229e+01 4.4510664398200987e+01 4.5619191128903822e+01 0 1 0
791 43 14 -3.5799999999999998e-01 3.4729642044029269e+01 4.2377810135268859e+01 4.7842416174019419e+01 0 1 0
974 54 4 1.6000000000000000e-01 3.6095332944366980e+01 4.7407343824549095e+01 4.1841527771317459e+01 0 1 0
801 43 19 -6.3500000000000001e-01 3.4016921452169505e+01 4.2648965807089546e+01 4.5257781518655719e+01 0 1 0
987 54 10 3.9800000000000002e-01 3.5911242725511840e+01 4.9408884019179943e+01 4.4148166197866210e+01 0 1 0
818 45 15 -3.5999999999999999e-01 3.5408154603469498e+01 4.2225042354348460e+01 4.2717114952594883e+01 0 1 0
1776 96 2 1.4999999999999999e-01 3.6685121251414159e+01 4.5515217518360274e+01 4.9238187538286304e+01 0 0 0
1770 96 15 -3.5999999999999999e-01 3.9789127312448805e+01 4.7468856114443106e+01 4.8082270152447833e+01 0 0 0
824 45 2 1.4999999999999999e-01 3.8599446211916131e+01 4.3068627992253830e+01 4.3830879887199025e+01 0 1 0
3030 289 20 1.0000000000000000e+00 3.6240554142071531e+01 4.2189949021100304e+01 4.5891620504180281e+01 0 0 0
1780 96 11 -5.4800000000000004e-01 3.5851250054090372e+01 4.6674021529361056e+01 4.9310424415562004e+01 0 0 0
984 54 11 -5.4800000000000004e-01 3.4928032135546047e+01 4.9321382731133056e+01 4.3878177013183873e+01 0 1 0
3094 353 20 1.0000000000000000e+00 3.9022021807533598e+01 4.6359274335780206e+01 4.5171715707552330e+01 0 0 0
845 46 10 3.9800000000000002e-01 3.3416735615064837e+01 4.4091178076651261e+01 4.3891984558003948e+01 0 1 0
820 45 5 1.6000000000000000e-01 3.7592435738247140e+01 4.1585895498205204e+01 4.1555261757047845e+01 0 1 0
1801 97 19 -6.3500000000000001e-01 3.8780414368346953e+01 4.8478977438529029e+01 4.3798299173608811e+01 0 0 0
1794 97 11 -5.4800000000000004e-01 3.8157488791227244e+01 4.8902244538759113e+01 4.6581643231777335e+01 0 0 0
828 45 11 -5.4800000000000004e-01 3.8569574837844272e+01 4.3505009202448967e+01 4.5174590323278849e+01 0 1 0
814 44 11 -5.4800000000000004e-01 3.8843230633418898e+01 4.2138813300675714e+01 4.7615162553039511e+01 0 1 0
825 45 13 -5.4800000000000004e-01 3.6392670455642609e+01 4.4173201155932240e+01 4.4058116498482136e+01 0 1 0
840 46 1 4.0000000000000002e-01 3.4288299883421324e+01 4.2348927734015845e+01 4.1734918033898424e+01 0 1 0
976 54 3 1.4999999999999999e-01 3.5673397481416885e+01 4.7066013051005804e+01 4.3296660923590622e+01 0 1 0
826 45 1 4.0000000000000002e-01 3.8788872475347432e+01 4.1567448490826727e+01 4.3769269413378566e+01 0 1 0
1766 95 19 -6.3500000000000001e-01 4.0435904773676441e+01 4.3663688753372917e+01 4.9065227739057562e+01 0 0 0
831 45 10 3.9800000000000002e-01 3.9501507561784962e+01 4.3646255112980221e+01 4.5564814705870603e+01 0 1 0
1792 97 1 4.0000000000000002e-01 3.9748613154064309e+01 4.8902358636487293e+01 4.8285237261573776e+01 0 0 0
1777 96 13 -5.4800000000000004e-01 3.7437602364081876e+01 4.6102361520743656e+01 4.7072581866393023e+01 0 0 0
980 54 2 1.4999999999999999e-01 3.4539977454793046e+01 4.7929200594353034e+01 4.3855788012903247e+01 0 1 0
798 43 8 2.7000000000000002e-01 3.3628374955285238e+01 4.3563954774791242e+01 4.6023156205766682e+01 0 1 0
842 46 11 -5.4800000000000004e-01 3.4034893191158908e+01 4.4419835786607415e+01 4.3136268226242080e+01 0 1 0
981 54 13 -5.4800000000000004e-01 3.6810067417807190e+01 4.7252645390742771e+01 4.4241843137495714e+01 0 1 0
1771 96 4 1.6000000000000000e-01 3.8724986565158652e+01 4.6841519117351858e+01 4.8976651791292660e+01 0 0 0
795 43 7 2.0799999999999999e-01 3.3661064650823228e+01 4.3218367643656947e+01 4.7561085349549799e+01 0 1 0
1735 94 5 1.6000000000000000e-01 3.8439169033154819e+01 3.8145342400798320e+01 5.5870935840521511e+01 0 0 0
1734 94 4 1.6000000000000000e-01 3.8410051528808495e+01 3.8641699676250141e+01 5.4464767888449522e+01 0 0 0
1737 94 16 -3.5999999999999999e-01 3.9747187096137282e+01 3.8333768621502664e+01 5.6466853984999318e+01 0 0 0
1733 94 15 -3.5999999999999999e-01 3.7318050202685079e+01 3.9518390089869932e+01 5.4062661116573928e+01 0 0 0
1738 94 6 1.4999999999999999e-01 3.7351441384306959e+01 3.8667228264653609e+01 5.6815123321368525e+01 0 0 0
378 22 16 -3.5999999999999999e-01 3.3820747421578481e+01 3.4901451416142685e+01 5.5321647744781487e+01 1 0 0
377 22 1 4.0000000000000002e-01 3.4418029195170462e+01 3.5870757884162991e+01 5.6224110404887440e+01 1 0 0
364 21 15 -3.5999999999999999e-01 3.4563495804169172e+01 3.5356273228789917e+01 5.7610538833975198e+01 1 0 0
379 22 2 1.4999999999999999e-01 3.3616499339110732e+01 3.7153270975987503e+01 5.6243332626507076e+01 1 0 0
360 21 4 1.6000000000000000e-01 3.5643090198021319e+01 3.4419637164636335e+01 5.7710356092606446e+01 1 0 0
1736 94 3 1.4999999999999999e-01 3.9376073243302841e+01 3.7772709894796193e+01 5.3627454279676591e+01 0 0 0
1740 94 13 -5.4800000000000004e-01 3.9540467283113443e+01 3.8419948289515155e+01 5.2357388700053356e+01 0 0 0
162 10 13 -5.4800000000000004e-01 3.2962548717135270e+01 3.6896601198969876e+01 5.1706370836773196e+01 0 0 0
789 43 6 1.4999999999999999e-01 3.5815232999251577e+01 3.8683188158121531e+01 5.0862312358504724e+01 0 1 0
1747 95 1 4.0000000000000002e-01 3.7694670497054318e+01 4.0548951067883806e+01 5.3113686693017840e+01 0 0 0
180 11 1 4.0000000000000002e-01 3.4215028921128322e+01 3.3273163320203238e+01 5.1203903362917586e+01 0 0 0
793 43 18 -3.5799999999999998e-01 3.5585869588530755e+01 3.7272596311292610e+01 5.1036129845910637e+01 0 1 0
176 11 16 -3.5999999999999999e-01 3.4800543194683264e+01 3.3153053203379670e+01 5.2546622635656966e+01 0 0 0
158 10 15 -3.5999999999999999e-01 3.2933251920285571e+01 3.3726726199318328e+01 5.1493395795599703e+01 0 0 0
166 10 10 3.9800000000000002e-01 3.3870808688156366e+01 3.6530252523064391e+01 5.1514809795547563e+01 0 0 0
181 11 17 -5.4800000000000004e-01 3.6457578073068767e+01 3.4036214483680197e+01 5.4382125077943442e+01 0 0 0
184 11 10 3.9800000000000002e-01 3.5553629925569624e+01 3.4226901147473136e+01 5.3872027135785373e+01 0 0 0
381 22 12 -3.5799999999999998e-01 3.2952782275721546e+01 3.7292589877179964e+01 5.7493652920761633e+01 1 1 0
357 21 5 1.6000000000000000e-01 3.5265320252355906e+01 3.2956299573223490e+01 5.7231172897576428e+01 1 0 0
1744 94 10 3.9800000000000002e-01 4.0239459000779021e+01 3.9148929297776000e+01 5.2497702329235686e+01 0 0 0
385 22 7 2.0799999999999999e-01 3.3049220799728808e+01 3.8603409708769405e+01 5.8012955204238409e+01 1 1 0
1741 94 1 4.0000000000000002e-01 4.0673252691659464e+01 3.7446732868679042e+01 5.5842860800710582e+01 0 0 0
1739 94 2 1.4999999999999999e-01 4.0773974562071047e+01 3.7662088070431565e+01 5.4361639681584492e+01 0 0 0
1751 95 12 -3.5799999999999998e-01 3.9906662762426102e+01 4.1130366190141579e+01 5.4046500625028301e+01 0 0 0
1742 94 17 -5.4800000000000004e-01 3.7919662521116983e+01 3.8828016949287388e+01 5.8144637313316323e+01 0 0 0
382 22 3 1.4999999999999999e-01 3.2636611808667219e+01 3.7242700433222659e+01 5.5044726363794950e+01 1 0 0
390 22 7 2.0799999999999999e-01 3.2762076145557103e+01 3.9440184539512373e+01 5.4167600005434799e+01 1 1 0
1748 95 16 -3.5999999999999999e-01 3.6391234033501206e+01 4.1207158393179128e+01 5.2947542362621952e+01 0 0 0
796 43 7 2.0799999999999999e-01 3.6803465619581729e+01 3.6521054887696884e+01 5.0851667632614635e+01 0 1 0
1745 94 10 3.9800000000000002e-01 3.8680765711140964e+01 3.8191357042993396e+01 5.8262946223091959e+01 0 0 0
177 11 6 1.4999999999999999e-01 3.6899667021473498e+01 3.2788206937104455e+01 5.3806541581462518e+01 0 0 0
380 22 5 1.6000000000000000e-01 3.2360632649584609e+01 3.4766682391804295e+01 5.5425762484294395e+01 1 0 0
155 10 4 1.6000000000000000e-01 3.2392152045325375e+01 3.4798240886708754e+01 5.0661074525790227e+01 0 0 0
1906 103 6 1.4999999999999999e-01 4.0965595909225165e+01 3.2747023042899897e+01 5.4039086273649936e+01 0 0 0
246 15 15 -3.5999999999999999e-01 3.7516053619692869e+01 4.9844757905856866e+01 5.3199693686700421e+01 0 -1 0
1775 96 6 1.4999999999999999e-01 4.0340429211869569e+01 4.7033980964223844e+01 5.0971475039592264e+01 0 0 0
265 16 3 1.4999999999999999e-01 4.0020597002204809e+01 4.9639787748547874e+01 5.6156118536580806e+01 1 -1 0
1749 95 2 1.4999999999999999e-01 3.8660668832965371e+01 4.1684196131325720e+01 5.3628020663974276e+01 0 0 0