LAMMPS data file via write_data, version 27 Feb 2020, timestep = 1560000

3080 atoms
12 atom types
3377 bonds
14 bond types
4587 angles
20 angle types
6402 dihedrals
32 dihedral types

2.9969882811367913e+01 7.0030117188623734e+01 xlo xhi
2.9969882811367913e+01 7.0030117188623734e+01 ylo yhi
2.9969882811367913e+01 7.0030117188623734e+01 zlo zhi

Masses

1 14.0267
2 14.0267
3 13.0188
4 13.0188
5 14.0266
6 14.0266
7 15.0345
8 15.0345
9 15.999
10 15.999
11 13.0188
12 14.0266

Pair Coeffs # lj/cut/coul/long

1 0.10433 3.91
2 0.10433 3.91
3 0.10433 3.91
4 0.10433 3.91
5 0.091411 3.95
6 0.091411 3.95
7 0.194746 3.75
8 0.194746 3.75
9 0.308017 2.39
10 0.308017 2.39
11 0.10433 3.91
12 0.091411 3.95

Bond Coeffs # harmonic

1 461.1 1.3984
2 461.1 1.3984
3 376.6 1.3696
4 321 1.5156
5 376.6 1.3696
6 376.6 1.3696
7 321 1.5156
8 376.6 1.3696
9 300.9 1.5375
10 300.9 1.5375
11 321 1.5156
12 461.1 1.3984
13 376.6 1.3696
14 321 1.5156

Angle Coeffs # harmonic

1 69.6 119.2
2 63.5 120.77
3 69.6 119.2
4 66.6 120.02
5 63.5 119.89
6 63.1 112.07
7 63.5 119.89
8 67.553 115.265
9 67.553 115.265
10 62.9 111.51
11 67.553 115.265
12 74.2 113.73
13 63.6 112.24
14 63.5 120.77
15 67.553 115.265
16 69.6 119.2
17 63.5 120.77
18 66.6 120.02
19 63.5 119.89
20 67.553 115.265

Dihedral Coeffs

 1 charmm 9.00000000e-01 2 180 0 # C1 C2 O1 C3
 2 charmm 9.00000000e-01 2 180 0 # C1 C4 O2 C3
 3 charmm 3.62500000e+00 2 180 0 # C2 C1 C4 O2
 4 charmm 3.62500000e+00 2 180 0 # C2 C1 C4 C8
 5 charmm 9.00000000e-01 2 180 0 # C2 O1 C3 O2
 6 charmm 9.00000000e-01 2 180 0 # C2 O1 C3 C5
 7 charmm 9.00000000e-01 2 180 0 # O1 C3 O2 C4
 8 multi/harmonic 0.00000000e+00 0.00000000e+00 0.00000000e+00 0.00000000e+00 0.00000000e+00 # O1 C3 C5 C6
 9 charmm 9.00000000e-01 2 180 0 # C3 O2 C4 C8
 10 multi/harmonic 1.55555545e-01 -4.66666635e-01 0.00000000e+00 6.22222180e-01 0.00000000e+00 # C3 C5 C6 C7
 11 multi/harmonic 0.00000000e+00 0.00000000e+00 0.00000000e+00 0.00000000e+00 0.00000000e+00 # O2 C3 C5 C6
 12 charmm 3.62500000e+00 2 180 0 # C4 C1 C2 O1
 13 charmm 9.00000000e-01 2 180 0 # C4 O2 C3 C5
 14 charmm 1.10000000e+00 2 180 0 # C5 O1 C3 O2
 15 charmm 1.10000000e+00 2 180 0 # C8 C1 C4 O2
 16 charmm 9.00000000e-01 2 180 0 # C1 LC2 O1 C3
 17 charmm 3.62500000e+00 2 180 0 # LC2 C1 C4 O2
 18 charmm 3.62500000e+00 2 180 0 # LC2 C1 C4 C8
 19 charmm 9.00000000e-01 2 180 0 # LC2 O1 C3 O2
 20 charmm 9.00000000e-01 2 180 0 # LC2 O1 C3 C5
 21 charmm 9.00000000e-01 2 180 0 # C3 O2 C4 LC8
 22 charmm 3.62500000e+00 2 180 0 # C4 C1 LC2 O1
 23 charmm 1.10000000e+00 2 180 0 # LC8 C1 C4 O2
 24 charmm 3.62500000e+00 2 180 0 # C2 C1 C4 LC8
 25 multi/harmonic 0.00000000e+00 0.00000000e+00 0.00000000e+00 0.00000000e+00 0.00000000e+00 # C1 C4 LC8 LC2
 26 multi/harmonic 0.00000000e+00 0.00000000e+00 0.00000000e+00 0.00000000e+00 0.00000000e+00 # O2 C4 LC8 LC2
 27 multi/harmonic 0.00000000e+00 0.00000000e+00 0.00000000e+00 0.00000000e+00 0.00000000e+00 # C4 LC8 LC2 C1
 28 multi/harmonic 0.00000000e+00 0.00000000e+00 0.00000000e+00 0.00000000e+00 0.00000000e+00 # C4 LC8 LC2 O1
 29 charmm 3.62500000e+00 2 180 0 # LC8 LC2 C1 C4
 30 charmm 9.00000000e-01 2 180 0 # LC8 LC2 O1 C3
 31 charmm 9.00000000e-01 2 180 0 # LC8 LC2 O1 C3
 32 charmm 3.62500000e+00 2 180 0 # LC2 C1 C4 LC8

Atoms # full

2400 7 12 -8.4293999999999994e-02 3.6449645842710389e+01 3.4048801967916660e+01 3.1625578629455227e+01 1 0 0
2948 11 6 1.4192500000000000e-01 3.5258116096499904e+01 3.1385255305164911e+01 3.4928336981390274e+01 0 1 0
2372 7 11 2.7960400000000002e-01 3.6641215103975746e+01 3.3866823582762834e+01 3.0176045296189653e+01 1 0 0
2396 7 4 4.5353599999999999e-01 3.5428804974788676e+01 3.5144961440471057e+01 3.2070586041029024e+01 1 0 0
2391 7 1 -1.1212999999999999e-01 3.4098047660784538e+01 3.4805460154890596e+01 3.2261274403300085e+01 1 0 0
2339 7 7 -7.3013999999999996e-02 3.5234576885738065e+01 3.4064656266937554e+01 3.7922517244938163e+01 1 0 0
2337 7 5 -4.1533000000000000e-02 3.2671775572013829e+01 3.3919895109473238e+01 3.7343426836124905e+01 1 0 0
2947 11 5 -4.1533000000000000e-02 3.6737157937990645e+01 3.1439527986756392e+01 3.4610524554974802e+01 0 1 0
2335 7 10 -5.0471800000000000e-01 3.1988751986086193e+01 3.4839597812657352e+01 3.5089761237766261e+01 1 0 0
2334 7 3 4.2037300000000000e-01 3.1682108523912877e+01 3.4671472412085642e+01 3.6420555656317461e+01 1 0 0
2025 6 10 -5.0471800000000000e-01 4.2258365718736059e+01 4.2148181863846304e+01 3.9953262616012751e+01 0 1 0
2333 7 9 -4.7975000000000001e-01 3.0903271219527547e+01 3.5750533701929719e+01 3.6836350947049034e+01 1 0 0
2338 7 6 1.4192500000000000e-01 3.3826853568206268e+01 3.4729030425689004e+01 3.7926223392808083e+01 1 0 0
2249 7 7 -7.3013999999999996e-02 3.2262825643323261e+01 3.1314390354395194e+01 3.1708013939674132e+01 1 0 0
2131 6 1 -1.1212999999999999e-01 4.6176695423117508e+01 4.6249086945363857e+01 3.6131818312065306e+01 0 0 0
2992 11 11 2.7960400000000002e-01 4.0168592140469123e+01 3.5700076738751008e+01 3.0650521751096964e+01 0 1 0
2395 7 10 -5.0471800000000000e-01 3.5915021271549307e+01 3.6473371384448249e+01 3.2233343240082661e+01 1 0 0
2392 7 11 2.7960400000000002e-01 3.3205626289081358e+01 3.5919323399913502e+01 3.2452313635224044e+01 1 0 0
2336 7 4 4.5353599999999999e-01 3.1513409970238580e+01 3.5889605304840948e+01 3.4294913649864043e+01 1 0 0
1572 4 11 2.7960400000000002e-01 3.0929003789801687e+01 3.0300494435718324e+01 3.7282990405455394e+01 0 1 0
2525 8 10 -5.0471800000000000e-01 4.2483322635378954e+01 4.9545621403209985e+01 3.4299353207483307e+01 0 0 1
2944 11 3 4.2037300000000000e-01 3.7393566415709358e+01 3.2595421058916507e+01 3.5300449598192635e+01 0 1 0
2997 11 5 -4.1533000000000000e-02 3.9843957306884306e+01 3.2041221293702229e+01 3.1355539678309498e+01 0 1 0
2945 11 10 -5.0471800000000000e-01 3.7943054133808978e+01 3.2432659534001239e+01 3.6561721119541716e+01 0 1 0
2943 11 9 -4.7975000000000001e-01 3.7744572685817289e+01 3.3762573325576852e+01 3.4642720632797236e+01 0 1 0
2946 11 4 4.5353599999999999e-01 3.8851962944631708e+01 3.3378383614993609e+01 3.7158105191794874e+01 0 1 0
2942 11 11 2.7960400000000002e-01 3.8613629226358924e+01 3.4747403897349542e+01 3.5198098292261022e+01 0 1 0
2995 11 10 -5.0471800000000000e-01 4.0001185292734100e+01 3.4129262620721633e+01 3.2862800587171158e+01 0 1 0
2941 11 1 -1.1212999999999999e-01 3.9289062224269983e+01 3.4562215252455282e+01 3.6416593397817266e+01 0 1 0
2950 11 12 -8.4293999999999994e-02 3.9348324941802595e+01 3.3037825509436892e+01 3.8547868474231095e+01 0 1 0
2442 8 2 2.7960400000000002e-01 4.0973393343936181e+01 3.0984419584913432e+01 3.5315116154456938e+01 0 1 1
2443 8 9 -4.7975000000000001e-01 4.1433233279452764e+01 3.2207171383658981e+01 3.5776690626344831e+01 0 1 1
2996 11 4 4.5353599999999999e-01 3.9545633476021855e+01 3.5425149553782305e+01 3.2946028193443944e+01 0 1 0
2994 11 3 4.2037300000000000e-01 4.0240672243691982e+01 3.3448075760629528e+01 3.1658618367374878e+01 0 1 0
3000 11 12 -8.4293999999999994e-02 3.8973196586585480e+01 3.5907640434200495e+01 3.4300827228427721e+01 0 1 0
2991 11 1 -1.1212999999999999e-01 3.9676892735067753e+01 3.6299919045890832e+01 3.1820223755441962e+01 0 1 0
2448 8 6 1.4192500000000000e-01 4.3388883680031270e+01 3.5095054021143198e+01 3.4902965411455142e+01 0 1 1
3002 11 11 2.7960400000000002e-01 3.8540689059221947e+01 3.3635096420586336e+01 3.9727101158556913e+01 0 1 0
2444 8 3 4.2037300000000000e-01 4.2573802039677645e+01 3.2788784623998943e+01 3.5261014957228220e+01 0 1 1
2446 8 4 4.5353599999999999e-01 4.3104717589541309e+01 3.0563616771436763e+01 3.4303026021117944e+01 0 1 1
3003 11 9 -4.7975000000000001e-01 3.8136180518580950e+01 3.4974062468672336e+01 3.9696456808446278e+01 0 1 0
2101 6 1 -1.1212999999999999e-01 4.2141972784997563e+01 3.6081100713018984e+01 3.9481151678639073e+01 0 1 0
2441 8 1 -1.1212999999999999e-01 4.1818325119698343e+01 2.9989024215546397e+01 3.4653398793065740e+01 0 1 1
2449 8 7 -7.3013999999999996e-02 4.4428205371795563e+01 3.6061380569217533e+01 3.5374543986266019e+01 0 1 1
2447 8 5 -4.1533000000000000e-02 4.3250885764509604e+01 3.4000430922427931e+01 3.5983188226676781e+01 0 1 1
2445 8 10 -5.0471800000000000e-01 4.3376878621465671e+01 3.1943163962877328e+01 3.4421812554127534e+01 0 1 1
2077 6 5 -4.1533000000000000e-02 4.6572669004873610e+01 3.3487365774523134e+01 3.2566187119162514e+01 0 1 0
2074 6 3 4.2037300000000000e-01 4.8000810575171904e+01 3.3772499526795229e+01 3.3127851361642492e+01 0 1 0
2073 6 9 -4.7975000000000001e-01 4.8654958827724130e+01 3.5011250244850189e+01 3.2974974029859567e+01 0 1 0
2057 6 5 -4.1533000000000000e-02 4.7996296100583763e+01 3.3969304728733128e+01 3.9357805725226569e+01 0 1 0
2075 6 10 -5.0471800000000000e-01 4.8641972086418960e+01 3.2927453062479046e+01 3.4027763034487052e+01 0 1 0
2078 6 6 1.4192500000000000e-01 4.6061338377485029e+01 3.4414878086289065e+01 3.1504946251883645e+01 0 1 0
2054 6 3 4.2037300000000000e-01 4.8973541630091070e+01 3.2987123004592121e+01 3.8786257817658836e+01 0 1 0
2053 6 9 -4.7975000000000001e-01 4.9548858287588104e+01 3.3060283168277429e+01 3.7543859167014887e+01 0 1 0
2055 6 10 -5.0471800000000000e-01 4.9252244237910105e+01 3.1820886645596147e+01 3.9406007492447372e+01 0 1 0
2058 6 6 1.4192500000000000e-01 4.7657731881281912e+01 3.5168835712373706e+01 3.8443140456753078e+01 0 1 0
2056 6 4 4.5353599999999999e-01 4.9907625377453819e+01 3.0722909239744837e+01 3.8814726704949905e+01 0 1 0
2998 11 6 1.4192500000000000e-01 4.1016115953093859e+01 3.1355232167364996e+01 3.0668792457240269e+01 0 1 0
2437 8 5 -4.1533000000000000e-02 4.6789974551386983e+01 3.0361261778280074e+01 3.7443613676844798e+01 0 1 1
2072 6 11 2.7960400000000002e-01 4.9676400970897376e+01 3.5475265883873874e+01 3.3924501797426927e+01 0 1 0
1769 5 7 -7.3013999999999996e-02 4.8738118959077447e+01 4.2264243222938262e+01 3.0171109841237179e+01 0 0 0
531 2 1 -1.1212999999999999e-01 4.9281631942893114e+01 4.9478215805635337e+01 3.8596011841003019e+01 0 0 0
2434 8 3 4.2037300000000000e-01 4.6817351909652601e+01 3.0073606385931928e+01 3.5952740306122358e+01 0 1 1
2331 7 1 -1.1212999999999999e-01 3.0674307400932680e+01 3.6846612853173227e+01 3.4721557763048011e+01 1 0 0
1483 4 9 -4.7975000000000001e-01 3.0591953357653331e+01 4.0432080020554253e+01 3.8716128584867917e+01 0 0 0
2340 7 12 -8.4293999999999994e-02 3.1737686926528934e+01 3.5736022325809117e+01 3.2776032249505015e+01 1 0 0
2393 7 9 -4.7975000000000001e-01 3.3741482265909546e+01 3.7155630919525699e+01 3.2725321089885895e+01 1 0 0
2394 7 3 4.2037300000000000e-01 3.5081115485249761e+01 3.7558951671985412e+01 3.2543382087855697e+01 1 0 0
1481 4 1 -1.1212999999999999e-01 3.2742687036353438e+01 4.0467476359951945e+01 3.7486533078301456e+01 0 0 0
1486 4 4 4.5353599999999999e-01 3.1933824490916255e+01 4.0848340626011080e+01 3.6356626759421502e+01 0 0 0
1490 4 12 -8.4293999999999994e-02 3.2426357322618742e+01 4.0884317932711937e+01 3.4881399739277029e+01 0 0 0
1613 4 9 -4.7975000000000001e-01 3.4467848559609770e+01 4.2075057080819008e+01 3.4057151492337276e+01 0 0 0
1482 4 11 2.7960400000000002e-01 3.1985931697084773e+01 4.0241804704462915e+01 3.8682627535332060e+01 0 0 0
1612 4 11 2.7960400000000002e-01 3.3141852165059404e+01 4.2166815491204225e+01 3.4440777764853728e+01 0 0 0
2397 7 5 -4.1533000000000000e-02 3.5619814041590288e+01 3.8727685164795574e+01 3.3493766623904882e+01 1 0 0
1485 4 10 -5.0471800000000000e-01 3.0545028880758181e+01 4.1001482541005835e+01 3.6496559205572467e+01 0 0 0
1614 4 3 4.2037300000000000e-01 3.5221249677528689e+01 4.3033174102286608e+01 3.3381664628777330e+01 0 0 0
2523 8 9 -4.7975000000000001e-01 4.3035899316484667e+01 4.7357708692759161e+01 3.4804174895990606e+01 0 0 1
532 2 11 2.7960400000000002e-01 4.9091685088432115e+01 4.8899565141300187e+01 3.9871255908090376e+01 0 0 0
1618 4 6 1.4192500000000000e-01 3.6370762540610343e+01 4.1491089002063077e+01 3.1752187390971180e+01 0 0 0
1619 4 7 -7.3013999999999996e-02 3.7514391349596842e+01 4.1176935212201528e+01 3.0867612194841890e+01 0 0 0
2456 8 4 4.5353599999999999e-01 3.6076391992520968e+01 4.3424110256020946e+01 3.7805051129214277e+01 0 0 1
1611 4 1 -1.1212999999999999e-01 3.2382175785663826e+01 4.3344406248908982e+01 3.4160724346262597e+01 0 0 0
2929 10 7 -7.3013999999999996e-02 3.1877616929142754e+01 4.1470650764200073e+01 3.0898355577951111e+01 1 0 1
1998 6 6 1.4192500000000000e-01 4.6964089687884780e+01 4.7261751399683646e+01 3.0449289111962262e+01 0 0 0
2106 6 4 4.5353599999999999e-01 4.1350501176538927e+01 3.7198053438068520e+01 3.9872975495960276e+01 0 1 0
3036 11 4 4.5353599999999999e-01 3.2468273163776011e+01 4.8176777984534496e+01 3.0637284802441528e+01 0 0 0
2398 7 6 1.4192500000000000e-01 3.6117604393157869e+01 3.8271138589392535e+01 3.4896126317580354e+01 1 0 0
2993 11 9 -4.7975000000000001e-01 4.0211987277544750e+01 3.4281851391094250e+01 3.0499264890041086e+01 0 1 0
2399 7 7 -7.3013999999999996e-02 3.6287458467176187e+01 3.9418381022563636e+01 3.5935261623921747e+01 1 0 0
1617 4 5 -4.1533000000000000e-02 3.6479756804339601e+01 4.2677836126792961e+01 3.2657974202814600e+01 0 0 0
450 1 8 -8.4293999999999994e-02 4.1050197668782452e+01 4.0153219728178321e+01 3.1156110897282652e+01 0 0 1
2460 8 12 -8.4293999999999994e-02 3.6863418669583737e+01 4.2183676767578667e+01 3.7869950209837214e+01 0 0 1
2110 6 12 -8.4293999999999994e-02 4.0917627477977582e+01 3.8291125802179664e+01 3.8887153512391706e+01 0 1 0
2481 8 1 -1.1212999999999999e-01 3.8945042648035070e+01 4.1947456326534237e+01 3.6522952652227410e+01 0 0 1
2490 8 12 -8.4293999999999994e-02 4.1188027481268655e+01 4.1948815547044440e+01 3.5253373579188938e+01 0 0 1
2482 8 11 2.7960400000000002e-01 3.8314900050906544e+01 4.2548240649191172e+01 3.7612240612640164e+01 0 0 1
2022 6 11 2.7960400000000002e-01 4.1429891368968910e+01 3.9639139089982940e+01 3.9167978605890838e+01 0 1 0
2021 6 1 -1.1212999999999999e-01 4.2513748039100037e+01 4.0147627820406683e+01 3.8444577645259351e+01 0 1 0
2486 8 4 4.5353599999999999e-01 4.0230889726022603e+01 4.2476217527599935e+01 3.6274168363352288e+01 0 0 1
1992 6 11 2.7960400000000002e-01 4.6791813828153792e+01 4.9516288279598029e+01 3.4424782174844069e+01 0 0 0
2512 8 11 2.7960400000000002e-01 4.1451975875447900e+01 4.2944127202946326e+01 3.4147676498416807e+01 0 0 1
2485 8 10 -5.0471800000000000e-01 4.0824133323970159e+01 4.3418935828763622e+01 3.7133712431921055e+01 0 0 1
2483 8 9 -4.7975000000000001e-01 3.8845561266217295e+01 4.3715862875647019e+01 3.8187963480318416e+01 0 0 1
2511 8 1 -1.1212999999999999e-01 4.2613400166617900e+01 4.3671582554665804e+01 3.4103739322349547e+01 0 0 1
2526 8 4 4.5353599999999999e-01 4.2802699390651327e+01 4.9317611522643091e+01 3.2941159888577502e+01 0 0 1
2956 11 4 4.5353599999999999e-01 3.6396854081056382e+01 4.9853521591419671e+01 3.2578306600007963e+01 0 0 0
2026 6 4 4.5353599999999999e-01 4.2954368164153493e+01 4.1399381277286800e+01 3.8971565272515775e+01 0 1 0
2009 6 7 -7.3013999999999996e-02 4.3734145543254897e+01 3.8027028068955268e+01 3.1827053072561917e+01 0 1 0
2030 6 12 -8.4293999999999994e-02 4.4064475752639389e+01 4.2229595023119828e+01 3.8192429502384989e+01 0 1 0
1984 6 3 4.2037300000000000e-01 4.6835247963855494e+01 3.9756262591741994e+01 3.8975583992187246e+01 0 1 0
1983 6 9 -4.7975000000000001e-01 4.5632766162471420e+01 4.0467567550122169e+01 3.9012250297731867e+01 0 1 0
2008 6 6 1.4192500000000000e-01 4.4772427323907955e+01 3.9017484034628865e+01 3.2318443146123258e+01 0 1 0
2005 6 10 -5.0471800000000000e-01 4.8396506748063189e+01 3.8192425099855612e+01 3.2849722078224048e+01 0 1 0
2007 6 5 -4.1533000000000000e-02 4.6221154477329492e+01 3.8917841874786085e+01 3.1766634860250416e+01 0 1 0
2004 6 3 4.2037300000000000e-01 4.7365286741184576e+01 3.9075987443840070e+01 3.2802014799103354e+01 0 1 0
2003 6 9 -4.7975000000000001e-01 4.7310392039178993e+01 3.9950346816454086e+01 3.3890328692888062e+01 0 1 0
1982 6 11 2.7960400000000002e-01 4.5376154264230038e+01 4.1497052844832126e+01 3.8094727489039116e+01 0 1 0
1981 6 1 -1.1212999999999999e-01 4.6174472883552660e+01 4.1774210073571972e+01 3.6981157077299365e+01 0 1 0
1986 6 4 4.5353599999999999e-01 4.7333838714574881e+01 4.0980664726408051e+01 3.6958087622651732e+01 0 1 0
1985 6 10 -5.0471800000000000e-01 4.7653496568218216e+01 4.0008929048858242e+01 3.7871968591482883e+01 0 1 0
2002 6 11 2.7960400000000002e-01 4.8301424219568098e+01 3.9963595029312373e+01 3.4864784164818175e+01 0 1 0
1990 6 12 -8.4293999999999994e-02 4.8328146742237379e+01 4.1172442812335639e+01 3.5857859316660260e+01 0 1 0
2006 6 4 4.5353599999999999e-01 4.9264660721592108e+01 3.8074665280539897e+01 3.3846748541473424e+01 0 1 0
2001 6 1 -1.1212999999999999e-01 4.9258349878225403e+01 3.8881278901772674e+01 3.4995081880435315e+01 0 1 0
3032 11 11 2.7960400000000002e-01 3.0579738328630988e+01 4.6780200983325969e+01 3.0371627427917858e+01 0 0 0
2958 11 6 1.4192500000000000e-01 3.2921760864334125e+01 4.9582538255511608e+01 3.6255502106838122e+01 0 0 0
2059 6 7 -7.3013999999999996e-02 4.6243732824712524e+01 3.5655976303708897e+01 3.8553283723795218e+01 0 1 0
545 2 10 -5.0471800000000000e-01 4.7915256795409441e+01 4.6238790585865004e+01 3.9943363567980427e+01 0 0 0
2135 6 10 -5.0471800000000000e-01 4.8332439232729712e+01 4.7141429116252937e+01 3.5146049777334660e+01 0 0 0
2076 6 4 4.5353599999999999e-01 4.9787051605336828e+01 3.3301183963115108e+01 3.4733906301997926e+01 0 1 0
3040 11 12 -8.4293999999999994e-02 3.3060583016881736e+01 4.9577529334596633e+01 3.0894725721910149e+01 0 0 0
2248 7 6 1.4192500000000000e-01 3.2630921187784494e+01 3.1301142980236179e+01 3.0257143399278885e+01 1 0 0
2957 11 5 -4.1533000000000000e-02 3.4227528095977654e+01 4.8967177153724734e+01 3.5607123374042366e+01 0 0 0
2953 11 9 -4.7975000000000001e-01 3.3868517157711096e+01 4.9244332064454923e+01 3.3174458448709743e+01 0 0 0
3031 11 1 -1.1212999999999999e-01 3.1106478500427563e+01 4.8003845828411272e+01 3.0867248012577420e+01 0 0 0
2531 8 1 -1.1212999999999999e-01 3.4673844531852090e+01 4.8442381876074109e+01 3.9576085837293917e+01 0 0 1
1615 4 10 -5.0471800000000000e-01 3.4478968773442801e+01 4.4092273947259542e+01 3.2944892531764872e+01 0 0 0
1616 4 4 4.5353599999999999e-01 3.3178732216840395e+01 4.4351182656655475e+01 3.3520082433825429e+01 0 0 0
1620 4 8 -8.4293999999999994e-02 3.2752978841884939e+01 4.5829772546204396e+01 3.3510721915040044e+01 0 0 0
2451 8 1 -1.1212999999999999e-01 3.5362420881285964e+01 4.3859214089329868e+01 3.8938981480951121e+01 0 0 1
2452 8 11 2.7960400000000002e-01 3.4841188785914696e+01 4.5192560770743682e+01 3.8678218437511781e+01 0 0 1
2453 8 9 -4.7975000000000001e-01 3.4897287938129239e+01 4.5847166396721150e+01 3.7494663953430923e+01 0 0 1
2979 11 7 -7.3013999999999996e-02 3.0752302843619827e+01 4.5023457808596390e+01 3.7371874895137658e+01 0 0 0
2522 8 11 2.7960400000000002e-01 4.3345662332181455e+01 4.7074300631914568e+01 3.3415557910029506e+01 0 0 1
2959 11 7 -7.3013999999999996e-02 3.2003123165234179e+01 4.8351701909515427e+01 3.6571525008016280e+01 0 0 0
2949 11 7 -7.3013999999999996e-02 3.4772764884091018e+01 3.0066776738233120e+01 3.5545305479296495e+01 0 1 0
2454 8 3 4.2037300000000000e-01 3.5505807322171201e+01 4.5397675710342625e+01 3.6327547093839797e+01 0 0 1
2528 8 6 1.4192500000000000e-01 4.3350211804383989e+01 4.9966851924877858e+01 3.7227991122642557e+01 0 0 1
2951 11 1 -1.1212999999999999e-01 3.5603061181735605e+01 4.9763548369861901e+01 3.1458731996576649e+01 0 0 0
2513 8 9 -4.7975000000000001e-01 4.0422783992673843e+01 4.3163755499497185e+01 3.3208622476354968e+01 0 0 1
2484 8 3 4.2037300000000000e-01 4.0154023099114987e+01 4.4181782830845897e+01 3.7998786895238482e+01 0 0 1
2079 6 7 -7.3013999999999996e-02 4.4828132202396709e+01 3.3973096039906579e+01 3.0788151996846906e+01 0 1 0
2487 8 5 -4.1533000000000000e-02 4.0816714227344548e+01 4.5462942023705537e+01 3.8415672853197428e+01 0 0 1
2457 8 5 -4.1533000000000000e-02 3.6258382716374967e+01 4.6413716766899348e+01 3.5544406116313013e+01 0 0 1
2455 8 10 -5.0471800000000000e-01 3.6100354729489688e+01 4.4111325988548153e+01 3.6545580181099083e+01 0 0 1
2516 8 4 4.5353599999999999e-01 4.2654014676838202e+01 4.4693919552715180e+01 3.3139729533244171e+01 0 0 1
2527 8 5 -4.1533000000000000e-02 4.2351213082747648e+01 4.8855933351897448e+01 3.6765750329468041e+01 0 0 1
2517 8 5 -4.1533000000000000e-02 3.9220552990054266e+01 4.4747374293876376e+01 3.1488229668360752e+01 0 0 1
2458 8 6 1.4192500000000000e-01 3.7391391667463488e+01 4.7031537556888821e+01 3.6338280117710816e+01 0 0 1
2518 8 6 1.4192500000000000e-01 3.8536088950008050e+01 4.5924033825107173e+01 3.2256447102413652e+01 0 0 1
2515 8 10 -5.0471800000000000e-01 4.1576042857217161e+01 4.5012852792885660e+01 3.2293212877637487e+01 0 0 1
2514 8 3 4.2037300000000000e-01 4.0474995724165368e+01 4.4225022397636394e+01 3.2287363740502130e+01 0 0 1
2459 8 7 -7.3013999999999996e-02 3.8585923116036163e+01 4.7238851938658300e+01 3.5441609832554086e+01 0 0 1
2521 8 1 -1.1212999999999999e-01 4.3188275519731690e+01 4.8035407130107203e+01 3.2389064173950857e+01 0 0 1
2524 8 3 4.2037300000000000e-01 4.2545525457804381e+01 4.8561765178745688e+01 3.5303749790162847e+01 0 0 1
2519 8 7 -7.3013999999999996e-02 3.7227182821473086e+01 4.6365348129574137e+01 3.1487925063877523e+01 0 0 1
2488 8 6 1.4192500000000000e-01 4.0298984287477509e+01 4.5968096349720582e+01 3.9789950558708021e+01 0 0 1
2520 8 12 -8.4293999999999994e-02 4.3808468971088821e+01 4.5684260603456863e+01 3.3144769516910692e+01 0 0 1
1993 6 9 -4.7975000000000001e-01 4.6893090186485445e+01 4.8771596243930844e+01 3.3210498522129427e+01 0 0 0
2332 7 2 2.7960400000000002e-01 3.0410885039466503e+01 3.6791908811646259e+01 3.6073601731809731e+01 1 0 0
2133 6 9 -4.7975000000000001e-01 4.7942455308748677e+01 4.4882103234705916e+01 3.5138241634741284e+01 0 0 0
1997 6 5 -4.1533000000000000e-02 4.7840551455725681e+01 4.8385072539959843e+01 3.1006497526496958e+01 0 0 0
2136 6 4 4.5353599999999999e-01 4.6979029838916603e+01 4.7348854855030737e+01 3.5677347900567675e+01 0 0 0
2140 6 12 -8.4293999999999994e-02 4.6372172416072345e+01 4.8794080814870810e+01 3.5631625703556239e+01 0 0 0
548 2 6 1.4192500000000000e-01 4.9861187511266166e+01 4.4477059415430872e+01 3.8787602966624590e+01 0 0 0
1999 6 7 -7.3013999999999996e-02 4.7574479908104806e+01 4.5864886141974914e+01 3.0624397460093544e+01 0 0 0
2132 6 2 2.7960400000000002e-01 4.6793515188087085e+01 4.5053905046237894e+01 3.5890847105158926e+01 0 0 0
2134 6 3 4.2037300000000000e-01 4.8827446941582494e+01 4.5916816988020024e+01 3.4785915531538841e+01 0 0 0
2954 11 3 4.2037300000000000e-01 3.4631129811603358e+01 4.9692422473060191e+01 3.4300563681832884e+01 0 0 0
547 2 5 -4.1533000000000000e-02 4.8800171329843963e+01 4.3910433209117485e+01 3.9740128996737468e+01 0 0 0
2955 11 10 -5.0471800000000000e-01 3.5967726537640679e+01 4.9775799183536563e+01 3.3929490636759795e+01 0 0 0
1127 3 5 -4.1533000000000000e-02 3.6375760584485718e+01 3.0288136552014603e+01 3.9111914577269062e+01 0 0 0
1994 6 3 4.2037300000000000e-01 4.7072651794265937e+01 4.9297837527285267e+01 3.1960808619798865e+01 0 0 0
2952 11 11 2.7960400000000002e-01 3.4232026514139065e+01 4.9453287279250645e+01 3.1818212251389998e+01 0 0 0
2928 10 6 1.4192500000000000e-01 3.0406937573039595e+01 4.1857882186698880e+01 3.0545787459144243e+01 1 0 1
1768 5 6 1.4192500000000000e-01 4.9710098364009795e+01 4.1048514248889994e+01 3.0095357562557968e+01 0 0 0
2540 8 12 -8.4293999999999994e-02 3.4233424536912629e+01 4.5957413129436596e+01 3.9829699721309154e+01 0 0 1
3035 11 10 -5.0471800000000000e-01 3.3253354989548860e+01 4.7237516062530723e+01 3.0002731013244784e+01 0 0 0
925 3 10 -5.0471800000000000e-01 3.3217649568894934e+01 3.3402212010667348e+01 4.3871238381858902e+01 0 0 0
924 3 3 4.2037300000000000e-01 3.3668968912565681e+01 3.4293129173239514e+01 4.4900171392892851e+01 0 0 0
923 3 9 -4.7975000000000001e-01 3.3568045129779705e+01 3.5626044397733345e+01 4.4524200266441198e+01 0 0 0
927 3 5 -4.1533000000000000e-02 3.3653535365433271e+01 3.3904049529768173e+01 4.6379528149328621e+01 0 0 0
928 3 6 1.4192500000000000e-01 3.4825158847474171e+01 3.4526455839288431e+01 4.7134867033021571e+01 0 0 0
926 3 4 4.5353599999999999e-01 3.3243488183052065e+01 3.3726363320016027e+01 4.2487215608517786e+01 0 0 0
921 3 1 -1.1212999999999999e-01 3.3253264689427581e+01 3.5079423858703350e+01 4.2072430657312410e+01 0 0 0
929 3 7 -7.3013999999999996e-02 3.4283047882259829e+01 3.5639975824753741e+01 4.8025879211647741e+01 0 0 0
922 3 11 2.7960400000000002e-01 3.3339047445957107e+01 3.6003964656396043e+01 4.3166590820143732e+01 0 0 0
930 3 12 -8.4293999999999994e-02 3.2811253481141151e+01 3.2597572383259966e+01 4.1542388351352635e+01 0 0 0
552 2 11 2.7960400000000002e-01 4.1703528751048779e+01 4.5684220270950327e+01 4.9796579686469840e+01 0 0 0
1122 3 11 2.7960400000000002e-01 3.3766780804661295e+01 3.1442469711380991e+01 4.1660169055177995e+01 0 0 0
1123 3 9 -4.7975000000000001e-01 3.4514493127567334e+01 3.1270225413731058e+01 4.0439281460205521e+01 0 0 0
907 3 5 -4.1533000000000000e-02 3.6411667023092420e+01 3.0984172371021565e+01 4.6344533077995237e+01 0 0 0
908 3 6 1.4192500000000000e-01 3.7438411781288998e+01 3.0841927620789306e+01 4.7407073524738820e+01 0 0 0
1189 3 7 -7.3013999999999996e-02 3.7841648640117967e+01 3.5957425698600225e+01 4.5870720258827092e+01 0 0 0
3005 11 10 -5.0471800000000000e-01 3.7498203966954954e+01 3.4929159049437708e+01 4.1909023246005390e+01 0 1 0
909 3 7 -7.3013999999999996e-02 3.8789023682756984e+01 3.0969352776093970e+01 4.6777779286824284e+01 0 0 0
3010 11 8 -8.4293999999999994e-02 3.7661731380055635e+01 3.2854672932737799e+01 4.3298632225590353e+01 0 1 0
3006 11 4 4.5353599999999999e-01 3.7862599139605095e+01 3.3611119888178820e+01 4.2018237005110478e+01 0 1 0
1188 3 6 1.4192500000000000e-01 3.9100272739096496e+01 3.5471759602204862e+01 4.6753423377957375e+01 0 0 0
1187 3 5 -4.1533000000000000e-02 3.8795445899068184e+01 3.4834612290406930e+01 4.8051135854816074e+01 0 0 0
2103 6 9 -4.7975000000000001e-01 4.2001692778094124e+01 3.5458585458371616e+01 4.1839478031289843e+01 0 1 0
2154 6 3 4.2037300000000000e-01 4.2255812286819051e+01 3.0959233452426819e+01 4.2172158513795878e+01 0 1 0
2155 6 10 -5.0471800000000000e-01 4.2365561903441062e+01 3.1964186006460508e+01 4.1234552689667765e+01 0 1 0
2068 6 6 1.4192500000000000e-01 4.2138088606767134e+01 3.0479958428231917e+01 4.9034918154873104e+01 0 1 0
2069 6 7 -7.3013999999999996e-02 4.1037500761877631e+01 3.1413619563481511e+01 4.9575268610032225e+01 0 1 0
2153 6 9 -4.7975000000000001e-01 4.3402863295362764e+01 3.0750610440519800e+01 4.2891588858822047e+01 0 1 0
2067 6 5 -4.1533000000000000e-02 4.2888938987421788e+01 3.1294962176888788e+01 4.7995166484226033e+01 0 1 0
2102 6 11 2.7960400000000002e-01 4.2495043484355556e+01 3.5246246591648820e+01 4.0559497300155371e+01 0 1 0
2156 6 4 4.5353599999999999e-01 4.3384176189200062e+01 3.2912671707097822e+01 4.1321870675535450e+01 0 1 0
2104 6 3 4.2037300000000000e-01 4.0980017108722926e+01 3.6349245537130422e+01 4.2131963462844922e+01 0 1 0
2107 6 5 -4.1533000000000000e-02 4.0753462916018734e+01 3.6697794759840654e+01 4.3568567258964720e+01 0 1 0
1987 6 5 -4.1533000000000000e-02 4.7471185520337009e+01 3.9246285314001447e+01 4.0195785175325355e+01 0 1 0
859 2 7 -7.3013999999999996e-02 4.2590595602055274e+01 3.4769758133530281e+01 4.5821042802861832e+01 0 0 0
2064 6 3 4.2037300000000000e-01 4.3779080707165029e+01 3.0548377458651974e+01 4.7090979980636945e+01 0 1 0
3001 11 1 -1.1212999999999999e-01 3.8425033580554782e+01 3.2891178883068861e+01 4.0955205111267894e+01 0 1 0
543 2 9 -4.7975000000000001e-01 4.6906605057875538e+01 4.4552075953726373e+01 4.1185945404541840e+01 0 0 0
858 2 6 1.4192500000000000e-01 4.3315829502051521e+01 3.5850960610435955e+01 4.6633167843364021e+01 0 0 0
857 2 5 -4.1533000000000000e-02 4.3258061331535544e+01 3.5653035153977868e+01 4.8100071655227104e+01 0 0 0
2175 6 10 -5.0471800000000000e-01 4.9617591140994371e+01 3.3186983590787705e+01 4.7069683730375203e+01 0 1 0
2070 6 12 -8.4293999999999994e-02 4.5613190916730183e+01 3.1136576905540334e+01 4.3818569508592297e+01 0 1 0
2065 6 10 -5.0471800000000000e-01 4.4381929121965783e+01 3.1189174623259536e+01 4.5991429891921911e+01 0 1 0
2152 6 11 2.7960400000000002e-01 4.4458018318978141e+01 3.1607390630655605e+01 4.2937490333937738e+01 0 1 0
2151 6 1 -1.1212999999999999e-01 4.4610993109339034e+01 3.2659509940961421e+01 4.2034253605414222e+01 0 1 0
2162 6 11 2.7960400000000002e-01 4.6958379762715850e+01 3.2411840338134063e+01 4.8502204158267944e+01 0 1 0
2180 6 12 -8.4293999999999994e-02 4.7261715362201464e+01 3.2624661544148708e+01 4.7106223553671441e+01 0 1 0
2161 6 1 -1.1212999999999999e-01 4.6270263700518313e+01 3.3440839435392540e+01 4.9257368696135934e+01 0 1 0
2176 6 4 4.5353599999999999e-01 4.8653402555864318e+01 3.2213766898657049e+01 4.6796775678105817e+01 0 1 0
2163 6 9 -4.7975000000000001e-01 4.7102828920303615e+01 3.1111079495919761e+01 4.8892850985219283e+01 0 1 0
2171 6 1 -1.1212999999999999e-01 4.8793440794259752e+01 3.1147803602478746e+01 4.5821557517594293e+01 0 1 0
717 2 5 -4.1533000000000000e-02 4.8278233722344069e+01 3.6624685232263211e+01 4.3677720714450757e+01 0 0 0
719 2 7 -7.3013999999999996e-02 4.9387288326643827e+01 3.4405162984117979e+01 4.2987752333760376e+01 0 0 0
718 2 6 1.4192500000000000e-01 4.8420493353951755e+01 3.5116854652252975e+01 4.3923940376744191e+01 0 0 0
713 2 9 -4.7975000000000001e-01 4.8162236991737146e+01 3.6950644396891157e+01 4.6261327542643834e+01 0 0 0
714 2 3 4.2037300000000000e-01 4.8311168296674140e+01 3.7486007179511233e+01 4.4953386590071531e+01 0 0 0
2066 6 4 4.5353599999999999e-01 4.5100388538240928e+01 3.0398099676535413e+01 4.5045225400209119e+01 0 1 0
1121 3 1 -1.1212999999999999e-01 3.3548270685744789e+01 3.0393069484382455e+01 4.2471401415074226e+01 0 0 0