LAMMPS data file via write_data, version 27 Feb 2020, timestep = 1560000

3066 atoms
8 atom types
3047 bonds
9 bond types
4031 angles
13 angle types
4996 dihedrals
31 dihedral types

3.0678620301950026e+01 6.9321379698042080e+01 xlo xhi
3.0678620301950026e+01 6.9321379698042080e+01 ylo yhi
3.0678620301950026e+01 6.9321379698042080e+01 zlo zhi

Masses

1 14.0266
2 15.0345
3 15.0345
4 15.999
5 15.999
6 12.011
7 13.0188
8 14.0266

Pair Coeffs # lj/cut/coul/long

1 0.118437 3.83
2 0.168912 3.675
3 0.194746 3.75
4 0.109296 2.28
5 0.156989 3.05
6 0.0814754 3.9
7 0.118437 3.83
8 0.168912 3.675

Bond Coeffs # harmonic

1 300.9 1.33
2 308.6 1.41
3 326.8 1.344
4 389.2 1.52
5 622.9 1.2
6 300.9 1.33
7 300.9 1.33
8 300.9 1.33
9 308.6 1.41

Angle Coeffs # harmonic

1 62.1001 115
2 69.9695 119.7
3 70.1483 110
4 62.1001 125
5 62.1001 125
6 62.1001 115
7 69.9695 119.7
8 69.9695 119.7
9 69.9695 119.7
10 62.1001 112
11 62.1001 114
12 62.1001 112
13 62.1001 114

Dihedral Coeffs

 1   opls    3.946985081  2.06947450595    -0.55045557725  0
 2   opls    8.719852249   8.1833071015    -0.60967426390  0
 3   opls    6.748545633   6.215974894     0.34378633525   0
 4   multi/harmonic      -0.0287747175       0        0       0        0
 5   multi/harmonic       9.371655243        0        0       0        0
 6   opls    3.946985081  2.06947450595   -0.55045557725  0
 7   opls    8.719852249  8.1833071015    -0.60967426390  0
 8   opls    6.748545633  6.215974894     0.34378633525   0
 9   opls    6.748545633  6.215974894     0.34378633525   0
 10  opls    6.748545633  6.215974894     0.34378633525   0
 11  opls    1.703948156   -0.452486407725 1.753787238795            0
 12  opls    1.703948156   -0.452486407725 1.753787238795            0
 13  opls    1.703948156   -0.452486407725 1.753787238795            0
 14  opls    1.703948156   -0.452486407725 1.753787238795            0
 15  opls    1.703948156   -0.452486407725 1.753787238795            0
 16  opls    1.703948156   -0.452486407725 1.753787238795            0
 17  opls    1.703948156   -0.452486407725 1.753787238795            0
 18  opls    1.703948156   -0.452486407725 1.753787238795            0
 19  opls    0.70196002927        0.21199494939   3.060016336405  0
 20  opls    3.946985081  2.06947450595    -0.550455577  0
 21  opls    3.946985081  2.06947450595    -0.550455577  0
 22  multi/harmonic -0.0287747175       0        0       0        0
 23  multi/harmonic  9.371655243        0        0       0        0
 24  multi/harmonic -0.498907499        0        0        0        0
 25  multi/harmonic -0.498907499        0        0        0        0
 26  multi/harmonic -0.498907499        0        0        0        0
 27  multi/harmonic -0.498907499        0        0        0        0
 28  multi/harmonic -0.498907499        0        0        0        0
 29  multi/harmonic -0.498907499        0        0        0        0
 30  multi/harmonic -0.498907499        0        0        0        0
 31  multi/harmonic -0.498907499        0        0        0        0

Atoms # full

234 1 6 7.5700000000000001e-01 3.4093092503685895e+01 3.5100380617006046e+01 3.6610991538260613e+01 0 1 0
232 1 4 -3.6299999999999999e-01 3.5268555513769954e+01 3.4229344259298998e+01 3.7074802545755055e+01 0 1 0
231 1 3 -7.3999999999999996e-02 3.3015913427959468e+01 3.4891262842853038e+01 3.7366059351990089e+01 0 1 0
190 1 4 -3.6299999999999999e-01 3.5072675336889787e+01 3.2405656112630844e+01 3.4054602746056581e+01 0 1 0
192 1 6 7.5700000000000001e-01 3.5187591636665388e+01 3.3010522235506158e+01 3.2628070896730463e+01 0 1 0
191 1 5 -5.0500000000000000e-01 3.6067619284593917e+01 3.3620295448946223e+01 3.2129078575970865e+01 0 1 0
187 1 7 2.6100000000000001e-01 3.6266669914735310e+01 3.2048923338400982e+01 3.4749953502855625e+01 0 1 0
229 1 7 2.6100000000000001e-01 3.6259540068256456e+01 3.3910352215657504e+01 3.6093791749171935e+01 0 1 0
233 1 5 -5.0500000000000000e-01 3.4093081221241938e+01 3.5913728456568052e+01 3.5683906630687098e+01 0 1 0
189 1 3 -7.3999999999999996e-02 3.3997546167529322e+01 3.2926748614215285e+01 3.2042772425562717e+01 0 1 0
230 1 8 -7.5999999999999998e-02 3.6486514996240274e+01 3.2588312286201273e+01 3.6014310768390800e+01 0 1 0
136 1 4 -3.6299999999999999e-01 3.6568987454994549e+01 3.5888423883065286e+01 3.4319463933731036e+01 0 1 0
155 1 5 -5.0500000000000000e-01 3.5667882687317544e+01 3.1739010487002485e+01 3.9031584590967952e+01 0 1 0
1523 7 5 -5.0500000000000000e-01 4.9199097765445892e+01 4.5607087754776586e+01 3.7731322718536553e+01 0 -1 0
153 1 3 -7.3999999999999996e-02 3.3654698614484737e+01 3.0966486788230814e+01 3.8986547778157778e+01 0 1 0
999 4 3 -7.3999999999999996e-02 3.1753073182391272e+01 3.0989207234779524e+01 3.4812698091410667e+01 1 1 0
138 1 6 7.5700000000000001e-01 3.6319134860721086e+01 3.7185843400387725e+01 3.3559745814260282e+01 0 1 0
2746 16 4 -3.6299999999999999e-01 3.1392579637514128e+01 3.5792636464797958e+01 3.1373742135810954e+01 1 0 1
134 1 8 -7.5999999999999998e-02 3.7453157882101308e+01 3.4622419550679147e+01 3.6166510181308283e+01 0 1 0
272 1 8 -7.5999999999999998e-02 3.8599183350421306e+01 4.0192369836230149e+01 3.1017916222727081e+01 0 1 0
133 1 7 2.6100000000000001e-01 3.7430374016003974e+01 3.5787866852985772e+01 3.5439846256789764e+01 0 1 0
1973 10 5 -5.0500000000000000e-01 4.2161669938221237e+01 3.2904314851660864e+01 3.9733349280831504e+01 0 1 0
1980 10 6 7.5700000000000001e-01 4.1697460203067976e+01 3.3570146928378819e+01 3.6477155039863661e+01 0 1 0
1979 10 5 -5.0500000000000000e-01 4.1750420642552193e+01 3.4745767791722344e+01 3.6212694357992930e+01 0 1 0
2064 10 6 7.5700000000000001e-01 4.0121736382323625e+01 3.3716185780053713e+01 3.1768488619408071e+01 0 1 0
1977 10 3 -7.3999999999999996e-02 4.0601323035813408e+01 3.2825751033439388e+01 3.6593982087208495e+01 0 1 0
80 1 8 -7.5999999999999998e-02 3.8692374401449683e+01 3.6377789346714785e+01 3.5410845373295984e+01 0 1 0
2063 10 5 -5.0500000000000000e-01 3.9968571402442755e+01 3.2819347981731582e+01 3.2561718545807672e+01 0 1 0
201 1 3 -7.3999999999999996e-02 4.2996402810039996e+01 3.6430626117297471e+01 3.3798047496357071e+01 0 1 0
2062 10 4 -3.6299999999999999e-01 4.1463654890935771e+01 3.4283400793783592e+01 3.1375640079520345e+01 0 1 0
1978 10 4 -3.6299999999999999e-01 4.2938978439651258e+01 3.2688261690945723e+01 3.6226909003531034e+01 0 1 0
203 1 5 -5.0500000000000000e-01 4.3641425905358190e+01 3.7014597205548064e+01 3.5825899039082458e+01 0 1 0
2009 10 5 -5.0500000000000000e-01 4.2192453635718067e+01 3.7181078135055657e+01 3.8952947116291448e+01 0 1 0
63 1 3 -7.3999999999999996e-02 3.8773675447421063e+01 3.3448195178593963e+01 4.0000292460617509e+01 0 1 0
1974 10 6 7.5700000000000001e-01 4.2869052903791193e+01 3.3646965548620777e+01 4.0258666550769235e+01 0 1 0
2061 10 3 -7.3999999999999996e-02 3.9331709526550618e+01 3.4774672733551171e+01 3.1886886158214747e+01 0 1 0
865 4 7 2.6100000000000001e-01 3.8576695471582340e+01 4.8551410419995548e+01 3.0937013491246926e+01 1 0 0
2060 10 8 -7.5999999999999998e-02 4.3235679395423752e+01 3.2924901092195597e+01 3.2151712651716942e+01 0 1 0
2065 10 7 2.6100000000000001e-01 4.3285131661067609e+01 3.1526380578559131e+01 3.2134820769788817e+01 0 1 0
1975 10 7 2.6100000000000001e-01 4.4103621120185394e+01 3.2684638052718647e+01 3.7077032232368921e+01 0 1 0
1969 10 7 2.6100000000000001e-01 4.4483981054197088e+01 3.4568546625274905e+01 3.8400872304179849e+01 0 1 0
1976 10 8 -7.5999999999999998e-02 4.4830525011144317e+01 3.3775808932203176e+01 3.7319673240114334e+01 0 1 0
1970 10 8 -7.5999999999999998e-02 4.5274365764719590e+01 3.5679839024628443e+01 3.8367183542041566e+01 0 1 0
2042 10 8 -7.5999999999999998e-02 4.4970100552827788e+01 3.1684293183575964e+01 3.6840344732418970e+01 0 1 0
2013 10 3 -7.3999999999999996e-02 4.6182610938685940e+01 3.4758468976393388e+01 3.3620859197845625e+01 0 1 0
2005 10 7 2.6100000000000001e-01 4.5151848881805115e+01 3.6593770857442436e+01 3.9441147421699924e+01 0 1 0
2016 10 6 7.5700000000000001e-01 4.6905337392171965e+01 3.5828980981796846e+01 3.3889584705927625e+01 0 1 0
2015 10 5 -5.0500000000000000e-01 4.8112525794785718e+01 3.5844201431740963e+01 3.3929961788674419e+01 0 1 0
1972 10 4 -3.6299999999999999e-01 4.4240175863033940e+01 3.4077583006122218e+01 3.9725163801351030e+01 0 1 0
866 4 2 -7.5999999999999998e-02 3.9796855142753543e+01 4.8081960827253141e+01 3.1415814807019643e+01 1 0 0
2066 10 8 -7.5999999999999998e-02 4.4142501844154879e+01 3.1159985376282620e+01 3.3144035937745123e+01 0 1 0
2006 10 8 -7.5999999999999998e-02 4.6240862294781607e+01 3.6758502339162874e+01 4.0242797155257350e+01 0 1 0
2745 16 3 -7.3999999999999996e-02 3.0914133657028827e+01 3.7192573292950854e+01 3.3202266807856702e+01 1 0 1
1131 5 3 -7.3999999999999996e-02 4.9166596837080405e+01 4.9537544342693927e+01 3.0838861936931213e+01 0 0 1
1985 10 5 -5.0500000000000000e-01 4.2243593450448969e+01 3.9464271040230742e+01 3.0915750716519902e+01 0 1 0
135 1 3 -7.3999999999999996e-02 3.5429059488003411e+01 3.6959182551024554e+01 3.2612638396713471e+01 0 1 0
507 2 3 -7.3999999999999996e-02 3.2680550179803220e+01 3.8697970266312225e+01 3.7771824142609937e+01 1 0 0
510 2 6 7.5700000000000001e-01 3.2048873675334328e+01 3.9760139364399393e+01 3.7277299347575024e+01 1 0 0
26 1 8 -7.5999999999999998e-02 3.5469896582128747e+01 4.1863535587194114e+01 3.2409683276582633e+01 0 1 0
501 2 3 -7.3999999999999996e-02 3.1887261545457982e+01 4.1241825585659875e+01 3.2994460495719302e+01 1 0 0
508 2 4 -3.6299999999999999e-01 3.2035644172301311e+01 4.0824008433738427e+01 3.8300184642797788e+01 1 0 0
505 2 7 2.6100000000000001e-01 3.1247054578521539e+01 4.2024459639248832e+01 3.8350170118161770e+01 1 0 0
170 1 8 -7.5999999999999998e-02 3.6304111965458418e+01 4.2142960268194386e+01 3.4428646853613927e+01 0 1 0
506 2 8 -7.5999999999999998e-02 3.1463318747124848e+01 4.2884585860691828e+01 3.9417991422030198e+01 1 0 0
25 1 7 2.6100000000000001e-01 3.5998882879454925e+01 4.2769518527312307e+01 3.3267461100415701e+01 0 1 0
2059 10 7 2.6100000000000001e-01 4.2631553554227715e+01 3.3541536955059065e+01 3.1097666516084072e+01 0 1 0
169 1 7 2.6100000000000001e-01 3.6795132725640613e+01 4.2912432908444053e+01 3.5511137938662863e+01 0 1 0
173 1 5 -5.0500000000000000e-01 3.3688134196252300e+01 4.2772384278501328e+01 3.6067105753193999e+01 0 1 0
2748 16 6 7.5700000000000001e-01 3.0912645204322693e+01 3.5890597122815635e+01 3.2787476177064335e+01 1 0 1
660 3 6 7.5700000000000001e-01 4.3786296536634183e+01 4.9661338723946898e+01 3.2798171463020800e+01 1 -1 0
172 1 4 -3.6299999999999999e-01 3.6016208960174652e+01 4.3178857207530626e+01 3.6633242321674601e+01 0 1 0
539 2 5 -5.0500000000000000e-01 3.4209315466658715e+01 4.0399222430683523e+01 4.0034329832065396e+01 1 0 0
538 2 4 -3.6299999999999999e-01 3.3607911536981796e+01 4.2606608101015937e+01 4.0286721839491648e+01 1 0 0
204 1 6 7.5700000000000001e-01 4.2918637227640367e+01 3.7198938798138826e+01 3.4895012064588315e+01 0 1 0
137 1 5 -5.0500000000000000e-01 3.7093239356990985e+01 3.8051121312519832e+01 3.3391064433776975e+01 0 1 0
83 1 5 -5.0500000000000000e-01 3.8342617387110607e+01 4.0276520697841370e+01 3.7882434186640467e+01 0 1 0
79 1 7 2.6100000000000001e-01 3.8870595404721982e+01 3.7578681469290267e+01 3.6054092170071847e+01 0 1 0
81 1 3 -7.3999999999999996e-02 3.7549876541689606e+01 3.8697213454813763e+01 3.9169766029372269e+01 0 1 0
84 1 6 7.5700000000000001e-01 3.7966440719535989e+01 3.9172540727693232e+01 3.8006062229278491e+01 0 1 0
82 1 4 -3.6299999999999999e-01 3.7849026872319115e+01 3.8069296767962413e+01 3.6959287875090702e+01 0 1 0
175 1 7 2.6100000000000001e-01 3.9436389359551292e+01 4.1090133560192783e+01 3.1647048100156113e+01 0 1 0
200 1 8 -7.5999999999999998e-02 4.0118986989716696e+01 3.8076883821236088e+01 3.6129034457355026e+01 0 1 0
199 1 7 2.6100000000000001e-01 4.0811480103324868e+01 3.8758690049890568e+01 3.5105319399409510e+01 0 1 0
260 1 8 -7.5999999999999998e-02 4.0290192048928787e+01 3.9969641704507119e+01 3.4768629407732583e+01 0 1 0
202 1 4 -3.6299999999999999e-01 4.2074694844432059e+01 3.8431271779733621e+01 3.4559305070464646e+01 0 1 0
259 1 7 2.6100000000000001e-01 4.0596175372816305e+01 4.0518758450166665e+01 3.3581517344117486e+01 0 1 0
176 1 8 -7.5999999999999998e-02 3.9403935792841921e+01 4.0612002882757622e+01 3.2917604542463145e+01 0 1 0
262 1 4 -3.6299999999999999e-01 4.1499905898902540e+01 4.1619260912788249e+01 3.3557379567851889e+01 0 1 0
178 1 4 -3.6299999999999999e-01 3.9129188224695056e+01 4.2433901285579964e+01 3.1523241056057252e+01 0 1 0
2010 10 6 7.5700000000000001e-01 4.3020552345166990e+01 3.8030073103202163e+01 3.8846673258347138e+01 0 1 0
2007 10 3 -7.3999999999999996e-02 4.2738952127913002e+01 3.9333542484163146e+01 3.8498750766621612e+01 0 1 0
264 1 6 7.5700000000000001e-01 4.2973441991201170e+01 4.1517638234745455e+01 3.4107912155290634e+01 0 1 0
263 1 5 -5.0500000000000000e-01 4.3269208535085788e+01 4.1124764822692192e+01 3.5199901341628731e+01 0 1 0
68 1 8 -7.5999999999999998e-02 3.6407642743188887e+01 4.0693409619921049e+01 3.0772881280508027e+01 0 1 0
128 1 8 -7.5999999999999998e-02 3.8101176593530155e+01 4.2857973003688173e+01 3.5706439204629703e+01 0 1 0
261 1 3 -7.3999999999999996e-02 4.3868700948897427e+01 4.2108733564042055e+01 3.3306873104954327e+01 0 1 0
92 1 8 -7.5999999999999998e-02 4.0038279362288065e+01 4.3490553029030416e+01 3.6683513703206351e+01 0 1 0
2098 10 4 -3.6299999999999999e-01 4.2293190512585745e+01 3.0822149590499137e+01 3.4651088722296933e+01 0 1 0
735 3 3 -7.3999999999999996e-02 4.4487044532002500e+01 4.9341332328548205e+01 3.7001035820912236e+01 1 -1 0
2014 10 4 -3.6299999999999999e-01 4.5943218656884540e+01 3.6972849002108553e+01 3.3516305794843646e+01 0 1 0
67 1 7 2.6100000000000001e-01 3.5786588991052724e+01 4.1885900515719335e+01 3.1093894248912306e+01 0 1 0
2027 10 5 -5.0500000000000000e-01 4.8325359462369057e+01 4.1854876291223391e+01 3.3518724738970434e+01 0 1 0
1961 10 5 -5.0500000000000000e-01 4.8282992303644420e+01 4.1882613961788437e+01 3.8629799003021844e+01 0 1 0
2011 10 7 2.6100000000000001e-01 4.6392695965636939e+01 3.8263720813422893e+01 3.3128997813641874e+01 0 1 0
1987 10 7 2.6100000000000001e-01 4.9683885230887775e+01 3.7605590053701057e+01 3.7717210419014748e+01 0 1 0
1988 10 8 -7.5999999999999998e-02 4.8264913262234280e+01 3.7642746553901368e+01 3.7496854679098902e+01 0 1 0
1962 10 6 7.5700000000000001e-01 4.7412115596088604e+01 4.1148045024718172e+01 3.8456099471611083e+01 0 1 0
1957 10 7 2.6100000000000001e-01 4.7706912871891717e+01 3.8884723383081813e+01 3.7214702623513233e+01 0 1 0
2024 10 8 -7.5999999999999998e-02 4.6118892811638517e+01 3.9238394290080088e+01 3.4011132378721719e+01 0 1 0
1958 10 8 -7.5999999999999998e-02 4.6817884460348765e+01 3.8715760669607285e+01 3.6179294834484637e+01 0 1 0
2023 10 7 2.6100000000000001e-01 4.6964246625992857e+01 3.9512481453134505e+01 3.5074831382520500e+01 0 1 0
1960 10 4 -3.6299999999999999e-01 4.7434571627246953e+01 3.9631046359821205e+01 3.8405026201954733e+01 0 1 0
2028 10 6 7.5700000000000001e-01 4.7754655515240728e+01 4.1955270074952580e+01 3.4536907344512358e+01 0 1 0
2026 10 4 -3.6299999999999999e-01 4.7207555955591900e+01 4.0869119445340026e+01 3.5435953665044408e+01 0 1 0
2012 10 8 -7.5999999999999998e-02 4.5847166194834784e+01 3.8682337638161115e+01 3.2018139932140244e+01 0 1 0
2008 10 4 -3.6299999999999999e-01 4.4487029750192846e+01 3.7891789471536818e+01 3.9225536420098528e+01 0 1 0
1948 10 4 -3.6299999999999999e-01 4.7442398801154823e+01 3.7228962773891389e+01 3.0918282399914812e+01 0 1 0
1959 10 3 -7.3999999999999996e-02 4.6086449195767067e+01 4.1523128464346904e+01 3.8582911455973871e+01 0 1 0
504 2 6 7.5700000000000001e-01 3.0820816392727103e+01 4.1950491954726289e+01 3.2799001854954980e+01 1 0 0
58 1 4 -3.6299999999999999e-01 3.2666242504501902e+01 4.8940947480702761e+01 3.9849500920406228e+01 0 1 0
509 2 5 -5.0500000000000000e-01 3.1313853717601184e+01 3.9781586509787395e+01 3.6266097063336318e+01 1 0 0
20 1 8 -7.5999999999999998e-02 3.6217916405174549e+01 4.9576635196897072e+01 3.7423176419500884e+01 0 1 0
2068 10 4 -3.6299999999999999e-01 4.3268273983165678e+01 3.0869011943166498e+01 3.0850014911026022e+01 0 1 0
29 1 5 -5.0500000000000000e-01 3.5843560641795591e+01 4.5947400946664374e+01 3.2052724517710836e+01 0 1 0
28 1 4 -3.6299999999999999e-01 3.5360445050764667e+01 4.4047052268508892e+01 3.3441374774268702e+01 0 1 0
174 1 6 7.5700000000000001e-01 3.4509925072912715e+01 4.3530206440508579e+01 3.6504075981339710e+01 0 1 0
989 4 5 -5.0500000000000000e-01 3.2205475674565676e+01 4.8832518722147341e+01 3.5420573024425472e+01 1 0 0
987 4 3 -7.3999999999999996e-02 3.3959437362101617e+01 4.7907552133974875e+01 3.4300139659353150e+01 1 0 0
171 1 3 -7.3999999999999996e-02 3.4267700831375869e+01 4.4536137230056880e+01 3.7372384268120300e+01 0 1 0
27 1 3 -7.3999999999999996e-02 3.3790738844414498e+01 4.5156295839157750e+01 3.2057847827658662e+01 0 1 0
988 4 4 -3.6299999999999999e-01 3.2009872314423291e+01 4.8392371427705974e+01 3.3006142690173817e+01 1 0 0
30 1 6 7.5700000000000001e-01 3.5088582367628909e+01 4.5032379373844833e+01 3.2271759657840526e+01 0 1 0
990 4 6 7.5700000000000001e-01 3.2666286584595035e+01 4.8334481809011734e+01 3.4411924984931140e+01 1 0 0
56 1 8 -7.5999999999999998e-02 3.4628445671797380e+01 4.8505490649874687e+01 3.8548698117883951e+01 0 1 0
55 1 7 2.6100000000000001e-01 3.4050541268197541e+01 4.8756513073419363e+01 3.9772189675535621e+01 0 1 0
19 1 7 2.6100000000000001e-01 3.4932810498794979e+01 4.9595303642621857e+01 3.7893844746733265e+01 0 1 0
347 2 5 -5.0500000000000000e-01 3.1507749570653644e+01 4.5464800813857792e+01 3.5161766686333507e+01 1 0 0
1173 5 3 -7.3999999999999996e-02 4.5759942647829661e+01 4.6461138909770604e+01 3.1307319139010321e+01 0 0 1
659 3 5 -5.0500000000000000e-01 4.3581528906720138e+01 4.9599009004033050e+01 3.1585982803980706e+01 1 -1 0
2744 16 8 -7.5999999999999998e-02 3.0680617699537073e+01 3.3621731281129414e+01 3.0692693135751405e+01 1 0 1
131 1 5 -5.0500000000000000e-01 3.6781156382836329e+01 4.6146581341877024e+01 3.5836431474892706e+01 0 1 0
162 1 6 7.5700000000000001e-01 3.7998023916607686e+01 4.5432294799239472e+01 3.9600390517161344e+01 0 1 0
106 1 4 -3.6299999999999999e-01 4.0852746287491620e+01 4.9105992395761476e+01 3.9896468605459063e+01 0 1 0
96 1 6 7.5700000000000001e-01 4.3159854401898485e+01 4.5529549367324250e+01 3.5977609499873481e+01 0 1 0
74 1 8 -7.5999999999999998e-02 4.0270678620991042e+01 4.9084238528541377e+01 3.7474495721058759e+01 0 1 0
129 1 3 -7.3999999999999996e-02 3.8443448424726824e+01 4.7312650166488851e+01 3.4928922791398229e+01 0 1 0
103 1 7 2.6100000000000001e-01 4.0683208086428010e+01 4.8390691653988675e+01 3.8666866465817996e+01 0 1 0
132 1 6 7.5700000000000001e-01 3.7894456569604095e+01 4.6230249336823675e+01 3.5498608593787601e+01 0 1 0
127 1 7 2.6100000000000001e-01 3.8838419257801704e+01 4.3911947782629241e+01 3.6104491410668679e+01 0 1 0
104 1 8 -7.5999999999999998e-02 4.1091413634114353e+01 4.7155548341361047e+01 3.8460099960164044e+01 0 1 0
177 1 3 -7.3999999999999996e-02 3.9800777168709281e+01 4.4483668697386065e+01 3.2390227405772507e+01 0 1 0
160 1 4 -3.6299999999999999e-01 3.9404625783262667e+01 4.6114453895397176e+01 3.9686655878224684e+01 0 1 0
157 1 7 2.6100000000000001e-01 4.0228427063550328e+01 4.6141076850188661e+01 3.8568904329597110e+01 0 1 0
158 1 8 -7.5999999999999998e-02 4.0915084832718470e+01 4.4959614853708857e+01 3.8194272315248810e+01 0 1 0
130 1 4 -3.6299999999999999e-01 3.8935700322404109e+01 4.5074074391856030e+01 3.5306895881686117e+01 0 1 0
94 1 4 -3.6299999999999999e-01 4.2255090484772168e+01 4.4303398170632462e+01 3.6288093085858677e+01 0 1 0
91 1 7 2.6100000000000001e-01 4.0976850451062496e+01 4.4482146908492410e+01 3.6917665093156373e+01 0 1 0
95 1 5 -5.0500000000000000e-01 4.2729047737218117e+01 4.6615973962895907e+01 3.5646203670215947e+01 0 1 0
161 1 5 -5.0500000000000000e-01 3.7004794322989987e+01 4.6107867969342600e+01 3.9341853877922773e+01 0 1 0
180 1 6 7.5700000000000001e-01 4.0268201833267867e+01 4.3494220651151998e+01 3.1559090302955816e+01 0 1 0
657 3 3 -7.3999999999999996e-02 4.2978096964498526e+01 4.9078522860775941e+01 3.3725976299624421e+01 1 -1 0
868 4 4 -3.6299999999999999e-01 3.7594577846715488e+01 4.9482993148804042e+01 3.1558306822399860e+01 1 0 0
729 3 3 -7.3999999999999996e-02 4.8105217409347816e+01 4.7968796023458637e+01 3.5700248687376380e+01 1 -1 0
732 3 6 7.5700000000000001e-01 4.7756769189379760e+01 4.8929465115223934e+01 3.4822892778248388e+01 1 -1 0
2073 10 3 -7.3999999999999996e-02 4.9676104074890603e+01 3.1290207103164686e+01 3.8698694857345963e+01 0 1 0
773 3 5 -5.0500000000000000e-01 4.4164455851670510e+01 4.6767873650696366e+01 3.8803730559103819e+01 1 0 0
1175 5 5 -5.0500000000000000e-01 4.4060719341005658e+01 4.5412173857147565e+01 3.2231640781517370e+01 0 0 1
1176 5 6 7.5700000000000001e-01 4.4504577913671540e+01 4.5979892469677822e+01 3.1235571711316819e+01 0 0 1
1455 7 3 -7.3999999999999996e-02 4.9074427657880676e+01 4.4940234833972589e+01 3.2113682681118384e+01 0 -1 0
2025 10 3 -7.3999999999999996e-02 4.7761467294952155e+01 4.3131595522696252e+01 3.5215686499546152e+01 0 1 0
771 3 3 -7.3999999999999996e-02 4.6299754940217625e+01 4.5937617699047387e+01 3.8975366961223536e+01 1 0 0
731 3 5 -5.0500000000000000e-01 4.7865718152561605e+01 4.8714023045878200e+01 3.3634437878074024e+01 1 -1 0
93 1 3 -7.3999999999999996e-02 4.4425919112251492e+01 4.5129297380598217e+01 3.5850060844803750e+01 0 1 0
774 3 6 7.5700000000000001e-01 4.5060236653950611e+01 4.6389062488580045e+01 3.9485634361573872e+01 1 0 0
737 3 5 -5.0500000000000000e-01 4.6120310264300102e+01 4.9622235044208693e+01 3.8540329382924796e+01 1 -1 0
156 1 6 7.5700000000000001e-01 3.4935634985879460e+01 3.0831863248565547e+01 3.9153367179840600e+01 0 1 0
1945 10 7 2.6100000000000001e-01 4.6143204044051423e+01 3.7906999337769186e+01 3.0882046429169534e+01 0 1 0
2481 13 3 -7.3999999999999996e-02 4.9361514117502253e+01 3.2268548025668863e+01 3.4808565125428458e+01 0 1 1
2747 16 5 -5.0500000000000000e-01 3.0759671696845203e+01 3.4941421917682888e+01 3.3520986628205812e+01 1 0 1
188 1 8 -7.5999999999999998e-02 3.6529569128394144e+01 3.0694888468922958e+01 3.4866996376829150e+01 0 1 0
2433 13 3 -7.3999999999999996e-02 4.7717421289264450e+01 3.1737548046134336e+01 3.0758508335466690e+01 0 1 1
253 1 7 2.6100000000000001e-01 3.5504657870620392e+01 3.2515581793336565e+01 4.3033249553099999e+01 0 1 0
254 1 8 -7.5999999999999998e-02 3.5361415974791477e+01 3.3266882103913716e+01 4.1919922972768525e+01 0 1 0
61 1 7 2.6100000000000001e-01 3.6062610872360359e+01 3.4439073067577844e+01 4.1966219456214141e+01 0 1 0
256 1 4 -3.6299999999999999e-01 3.5542718449774043e+01 3.3231308895971907e+01 4.4284345574845638e+01 0 1 0
62 1 8 -7.5999999999999998e-02 3.5169960387638326e+01 3.5515704835523152e+01 4.2009545846516481e+01 0 1 0
475 2 7 2.6100000000000001e-01 3.2083129094121780e+01 3.1410617766939488e+01 4.8421913658015477e+01 1 0 0
320 2 8 -7.5999999999999998e-02 3.2884044818987441e+01 3.2343925280064120e+01 4.8820554405813873e+01 1 0 0
399 2 3 -7.3999999999999996e-02 3.2578108746172674e+01 3.4039176723484566e+01 4.4569688484294744e+01 1 0 0
258 1 6 7.5700000000000001e-01 3.6030792440770192e+01 3.2598219292765279e+01 4.5573518814995523e+01 0 1 0
8 1 8 -7.5999999999999998e-02 3.5090935480121715e+01 3.1232260646931991e+01 4.3001273548586191e+01 0 1 0
564 3 6 7.5700000000000001e-01 3.6448677296905146e+01 3.6699506727178552e+01 4.8390637284697803e+01 1 0 0
563 3 5 -5.0500000000000000e-01 3.6236334057860859e+01 3.5612795510134390e+01 4.8859037825316094e+01 1 0 0
400 2 4 -3.6299999999999999e-01 3.1746065804777540e+01 3.2039429104367791e+01 4.5167633883363500e+01 1 0 0
257 1 5 -5.0500000000000000e-01 3.5482829150927380e+01 3.1634664079854581e+01 4.6122662266143898e+01 0 1 0
402 2 6 7.5700000000000001e-01 3.1770189264857226e+01 3.3539524302979991e+01 4.5495835711495580e+01 1 0 0
397 2 7 2.6100000000000001e-01 3.1762104861284669e+01 3.0960448790621047e+01 4.6118196653336355e+01 1 0 0
561 3 3 -7.3999999999999996e-02 3.5533085759862530e+01 3.7590164937732453e+01 4.7850803877654897e+01 1 0 0
401 2 5 -5.0500000000000000e-01 3.1118479561404602e+01 3.4087024923546295e+01 4.6329138958193838e+01 1 0 0
389 2 5 -5.0500000000000000e-01 3.1023692339719734e+01 3.6912147225047235e+01 4.2428001611690696e+01 1 0 0
765 3 3 -7.3999999999999996e-02 4.1357548541600707e+01 3.4011927878303837e+01 4.9711817445021808e+01 1 0 0
554 2 8 -7.5999999999999998e-02 3.3567636681462368e+01 3.4103695392282155e+01 4.9816842143416295e+01 1 0 0
1512 7 6 7.5700000000000001e-01 4.8917405231994849e+01 4.9005417360303667e+01 4.0939064600226359e+01 0 -1 0
255 1 3 -7.3999999999999996e-02 3.6443449606528134e+01 3.3596839962962775e+01 4.6330136338122280e+01 0 1 0
64 1 4 -3.6299999999999999e-01 3.7350278400958572e+01 3.4735883640536123e+01 4.1288309685846535e+01 0 1 0
615 3 3 -7.3999999999999996e-02 4.1106156588866881e+01 3.4208531604567469e+01 4.5986437764699744e+01 1 0 0
618 3 6 7.5700000000000001e-01 4.0372171505163209e+01 3.5289958933789997e+01 4.5741767849675753e+01 1 0 0
617 3 5 -5.0500000000000000e-01 3.9316740968047192e+01 3.5306704546456089e+01 4.5230291382464173e+01 1 0 0
616 3 4 -3.6299999999999999e-01 4.1062736582191349e+01 3.6496965874931455e+01 4.6498633137249357e+01 1 0 0
1971 10 3 -7.3999999999999996e-02 4.2723715375872082e+01 3.4072784556210152e+01 4.1514204249616618e+01 0 1 0
65 1 5 -5.0500000000000000e-01 3.8893320253277913e+01 3.3037762075903530e+01 4.2151267004192036e+01 0 1 0
66 1 6 7.5700000000000001e-01 3.8466705001782259e+01 3.3718960139487855e+01 4.1250084485808195e+01 0 1 0
579 3 3 -7.3999999999999996e-02 4.0362976664811271e+01 3.6775166776648973e+01 4.2354486842532239e+01 1 0 0
562 3 4 -3.6299999999999999e-01 3.7844018397290654e+01 3.7047338430267345e+01 4.7984529655762032e+01 1 0 0
266 1 8 -7.5999999999999998e-02 3.4586725563069145e+01 4.7954979975683941e+01 4.0720969930785259e+01 0 1 0
789 3 3 -7.3999999999999996e-02 4.3471087932866439e+01 3.0869898479370033e+01 4.3169962512696351e+01 1 0 0
218 1 8 -7.5999999999999998e-02 4.3986484940055433e+01 4.7763405851258412e+01 4.6112018701054282e+01 0 1 0
2649 15 3 -7.3999999999999996e-02 4.9524895075196966e+01 3.6420620834312579e+01 4.5448283848694722e+01 0 0 -1
108 1 6 7.5700000000000001e-01 4.1349204337483876e+01 4.8525667742997385e+01 4.1242939474695049e+01 0 1 0
1995 10 3 -7.3999999999999996e-02 4.4186242453927868e+01 3.6094453220864303e+01 4.4201881087123382e+01 0 1 0
2038 10 4 -3.6299999999999999e-01 4.8075615504093705e+01 3.3298692440894079e+01 4.1335441856744580e+01 0 1 0
2039 10 5 -5.0500000000000000e-01 4.5890677484302657e+01 3.2961204989417922e+01 4.2334899732809276e+01 0 1 0
719 3 5 -5.0500000000000000e-01 4.4450608679041935e+01 3.2769108561511892e+01 4.5691226340154486e+01 1 0 0
1998 10 6 7.5700000000000001e-01 4.5413736724672383e+01 3.5840571221769856e+01 4.3763842340432028e+01 0 1 0
717 3 3 -7.3999999999999996e-02 4.5884851924053514e+01 3.3857025584153533e+01 4.7051590333344301e+01 1 0 0
720 3 6 7.5700000000000001e-01 4.5468909323254024e+01 3.2807272828087633e+01 4.6282396143775301e+01 1 0 0
718 3 4 -3.6299999999999999e-01 4.6647285529615054e+01 3.1860026369813653e+01 4.6137789093719924e+01 1 0 0
1997 10 5 -5.0500000000000000e-01 4.6256646486481600e+01 3.5455855649234117e+01 4.4544576396580133e+01 0 1 0
1994 10 8 -7.5999999999999998e-02 4.7756822203628012e+01 3.5797860203091247e+01 4.1690485068238331e+01 0 1 0
1996 10 4 -3.6299999999999999e-01 4.5462694845335690e+01 3.6434588390870140e+01 4.2342135353923737e+01 0 1 0
1993 10 7 2.6100000000000001e-01 4.6418186852593983e+01 3.6051728378803823e+01 4.1366786473612834e+01 0 1 0
2035 10 7 2.6100000000000001e-01 4.8425339241252040e+01 3.4708543846060287e+01 4.1359218366661565e+01 0 1 0
2040 10 6 7.5700000000000001e-01 4.6601730208012967e+01 3.2762751917655848e+01 4.1394621796163015e+01 0 1 0
2036 10 8 -7.5999999999999998e-02 4.9702555438571522e+01 3.5016654028380664e+01 4.1104835152693241e+01 0 1 0
2037 10 3 -7.3999999999999996e-02 4.6412066765385831e+01 3.1811410842000864e+01 4.0495475802795980e+01 0 1 0
319 2 7 2.6100000000000001e-01 3.2564012898641842e+01 3.3184809555545009e+01 4.9820470089442495e+01 1 0 0
2641 15 7 2.6100000000000001e-01 4.9755789400151826e+01 4.0495073315110922e+01 4.6830105394817885e+01 0 0 -1
1511 7 5 -5.0500000000000000e-01 4.9086871846998960e+01 4.7822608392104527e+01 4.0670738826388231e+01 0 -1 0
290 1 8 -7.5999999999999998e-02 4.0711036998179253e+01 4.5549580924818571e+01 4.9935759830940114e+01 0 1 0
277 1 7 2.6100000000000001e-01 3.5648758296415174e+01 3.6783100861110761e+01 4.1936549807002194e+01 0 1 0
280 1 4 -3.6299999999999999e-01 3.6280846582205996e+01 3.7355000045980134e+01 4.3120085497612976e+01 0 1 0
494 2 8 -7.5999999999999998e-02 3.1277568843195869e+01 4.1481755286193781e+01 4.3241690892222330e+01 1 0 0
278 1 2 -7.5999999999999998e-02 3.4875868927389895e+01 3.7497622017267517e+01 4.1125270384565646e+01 0 1 0
375 2 3 -7.3999999999999996e-02 3.3165256450355542e+01 3.7903951068436641e+01 4.5028927853106133e+01 1 0 0
376 2 4 -3.6299999999999999e-01 3.1751938023704316e+01 3.9890512674187640e+01 4.4981302755706849e+01 1 0 0
377 2 5 -5.0500000000000000e-01 3.4119164155286491e+01 3.9869347393322656e+01 4.4256766132778225e+01 1 0 0
378 2 6 7.5700000000000001e-01 3.3167593063985045e+01 3.9258361418341266e+01 4.4687447578454353e+01 1 0 0
493 2 7 2.6100000000000001e-01 3.2094298551161579e+01 4.2503326411928242e+01 4.2801162963245652e+01 1 0 0
373 2 7 2.6100000000000001e-01 3.1130073517399516e+01 4.1089126910222923e+01 4.4539020194659031e+01 1 0 0
285 1 3 -7.3999999999999996e-02 3.3440145165516533e+01 4.2596787071025147e+01 4.7055243499660250e+01 0 1 0
536 2 8 -7.5999999999999998e-02 3.1612362447325538e+01 4.3011431593789240e+01 4.1611438641726537e+01 1 0 0