LAMMPS data file via write_data, version 27 Feb 2020, timestep = 1560000

7176 atoms
6 atom types
7133 bonds
8 bond types
13204 angles
16 angle types
20883 dihedrals
19 dihedral types

3.0045015897248174e+01 6.9954984102744447e+01 xlo xhi
3.0045015897248174e+01 6.9954984102744447e+01 ylo yhi
3.0045015897248174e+01 6.9954984102744447e+01 zlo zhi

Masses

1 12.011
2 12.011
3 12.011
4 1.008
5 1.008
6 15.999

Pair Coeffs # lj/cut/coul/long

1 0.02 4.05
2 0.055 3.88
3 0.08 3.67
4 0.022 2.35
5 0.046 0.399
6 0.152 3.15

Bond Coeffs # harmonic

1 333.23 1.5137
2 321 1.51898
3 355.399 1.10417
4 342.429 1.44443
5 342.175 1.52452
6 356.799 1.11018
7 360.55 1.10888
8 337.287 1.05617

Angle Coeffs # harmonic

1 103.344 107.605
2 78.0101 110.467
3 59.5813 105.304
4 62.236 100.312
5 58.7513 105.412
6 60.2409 110.45
7 53.3336 114.674
8 60.3001 105.986
9 85.7639 110.632
10 61.8063 102.912
11 42.6254 113.106
12 67.7923 112.914
13 53.3336 114.674
14 56.9646 111.546
15 61.244 103.88
16 75.5181 102.579

Dihedral Coeffs

 1  opls 0 0.0999   0  0
 2  opls 0 0.0999   0  0
 3  opls 0 0.0999   0  0
 4  opls 0 0.0999   0  0
 5  opls 0 0.0999   0  0
 6  multi/harmonic 2.659900 0 0 0 0
 7  opls 0 0.0999   0  0
 8  opls 0 0.0999   0  0
 9  multi/harmonic 2.659900 0 0 0 0
 10 opls 0 0.0999   0  0
 11 opls 0 0.0999   0  0
 12 opls 0 0.0999   0  0
 13 opls 0 0.0999   0  0
 14 opls 0 0.2799   0  0
 15 opls 0 0.0999   0  0
 16 opls 0 0.3999   0  0
 17 opls 0 0.3999   0  0
 18 opls 0 0.3999   0  0
 19 opls 0 0.3999   0  0

Atoms # full

2572 10 1 1.4000000000000001e-01 3.5449359033982446e+01 3.3706334264009769e+01 3.5208181056370513e+01 0 0 0
2563 10 4 8.9999999999999997e-02 3.4258962097870850e+01 3.1865133490199980e+01 3.5281764675358090e+01 0 0 0
2559 10 2 -1.7999999999999999e-01 3.4719494066272915e+01 3.2510881373832774e+01 3.4511151452380773e+01 0 0 0
2574 10 4 8.9999999999999997e-02 3.4706146855484917e+01 3.4408019030916940e+01 3.5511819406069456e+01 0 0 0
2558 10 1 1.4000000000000001e-01 3.3684016900797516e+01 3.3039648716357824e+01 3.3529968069113778e+01 0 0 0
2560 10 4 8.9999999999999997e-02 3.3075255030304064e+01 3.3655922320813893e+01 3.4198716326400785e+01 0 0 0
2561 10 6 -6.6000000000000003e-01 3.4307021537081219e+01 3.3691820681037441e+01 3.2386812231774591e+01 0 0 0
2562 10 4 8.9999999999999997e-02 3.5425384430040893e+01 3.1843343803218701e+01 3.3965204984621622e+01 0 0 0
2619 10 4 8.9999999999999997e-02 3.2322658811275119e+01 3.1413893400426915e+01 3.3887554887943800e+01 0 0 0
2615 10 2 -1.7999999999999999e-01 3.2762827384247856e+01 3.1950489248912948e+01 3.3006251792693170e+01 0 0 0
2614 10 1 1.4000000000000001e-01 3.3301951297265134e+01 3.0873385157033450e+01 3.2079235181309194e+01 0 0 0
2564 10 5 4.2999999999999999e-01 3.4872453870076058e+01 3.4531507513460809e+01 3.2808981155573626e+01 0 0 0
2618 10 4 8.9999999999999997e-02 3.1885451301248576e+01 3.2409603695410865e+01 3.2566032336830119e+01 0 0 0
2620 10 5 4.2999999999999999e-01 3.4412008752207598e+01 3.2463672236365539e+01 3.1486391759341330e+01 0 0 0
2617 10 6 -6.6000000000000003e-01 3.4453270103390523e+01 3.1336028173482021e+01 3.1383128037976018e+01 0 0 0
5398 26 6 -6.6000000000000003e-01 3.2578764063042463e+01 3.2424715808095605e+01 3.7023410580659025e+01 0 0 0
2577 10 4 8.9999999999999997e-02 3.5461510151456878e+01 3.2507520158543443e+01 3.6928911447422749e+01 0 0 0
4688 21 4 8.9999999999999997e-02 3.1149451751577661e+01 3.5361342598351726e+01 3.5763074712707414e+01 0 0 1
2524 10 2 -1.7999999999999999e-01 3.2153109849557055e+01 3.0538620597867833e+01 3.1125606763526239e+01 0 0 0
4611 21 4 8.9999999999999997e-02 3.1774846388880967e+01 3.5997787226916891e+01 3.3279941300784579e+01 0 0 1
2573 10 2 -1.7999999999999999e-01 3.6135872694944645e+01 3.3179205207935077e+01 3.6421420176424903e+01 0 0 0
4684 21 2 -1.7999999999999999e-01 3.1405276442495143e+01 3.6358284590000871e+01 3.6110503338483063e+01 0 0 1
4687 21 4 8.9999999999999997e-02 3.2481555990634561e+01 3.6286502652059824e+01 3.6273432292689684e+01 0 0 1
5399 26 4 8.9999999999999997e-02 3.1826312699762603e+01 3.0213659708598460e+01 3.6595840397775426e+01 0 0 0
2575 10 6 -6.6000000000000003e-01 3.6408960352355450e+01 3.4293199497400479e+01 3.4298647139917989e+01 0 0 0
5154 24 5 4.2999999999999999e-01 3.5768960922192605e+01 3.0539413351721890e+01 3.1561549916136098e+01 0 0 0
5396 26 2 -1.7999999999999999e-01 3.2263071649304685e+01 3.0099872060975272e+01 3.7647196677309800e+01 0 0 0
2718 10 4 8.9999999999999997e-02 3.4495990007807997e+01 3.8923015368297783e+01 3.7385416088994212e+01 0 0 0
4785 22 6 -6.6000000000000003e-01 3.6356412576486377e+01 3.6315501929675591e+01 3.1429818626006341e+01 0 0 1
2581 10 4 8.9999999999999997e-02 3.6517880519194911e+01 3.5208773071841911e+01 3.7068484884367436e+01 0 0 0
2579 10 1 1.4000000000000001e-01 3.6451682673318075e+01 3.4229922986377630e+01 3.7475971987210414e+01 0 0 0
4683 21 1 1.4000000000000001e-01 3.0610388972690462e+01 3.6657365326991297e+01 3.7440122344364262e+01 0 0 1
1948 7 4 8.9999999999999997e-02 3.9969115957468865e+01 4.3735382802746294e+01 3.0400617943912128e+01 0 0 0
2716 10 3 -2.7000000000000002e-01 3.5429467000975293e+01 3.9358872739022587e+01 3.7782679165751176e+01 0 0 0
6483 35 4 8.9999999999999997e-02 4.2783645745136027e+01 3.4105777007440281e+01 3.7875278149301529e+01 0 0 1
3103 12 4 8.9999999999999997e-02 4.4643780999391339e+01 3.0342998233300140e+01 3.7484293477617427e+01 0 0 0
2391 9 4 8.9999999999999997e-02 4.4744870266842021e+01 4.6812191269067974e+01 3.1434053971962506e+01 0 0 1
2576 10 4 8.9999999999999997e-02 3.6934553607057502e+01 3.2504098970675344e+01 3.6099627842092040e+01 0 0 0
4788 22 5 4.2999999999999999e-01 3.7035922543582522e+01 3.5574240528399038e+01 3.0985384167805403e+01 0 0 1
2578 10 5 4.2999999999999999e-01 3.7135585152502365e+01 3.3524167417279905e+01 3.3979226824466110e+01 0 0 0
2950 12 4 8.9999999999999997e-02 4.0767459254009424e+01 3.3641370869869142e+01 3.1658499635291395e+01 0 0 0
3018 12 6 -6.6000000000000003e-01 3.8815615243574015e+01 3.2833892672560822e+01 3.3747518975032094e+01 0 0 0
3021 12 5 4.2999999999999999e-01 3.8642824523189006e+01 3.2385213185674274e+01 3.2807777174762045e+01 0 0 0
3119 12 5 4.2999999999999999e-01 3.8881875926895297e+01 3.3847728229314960e+01 3.5354914400867827e+01 0 0 0
5045 24 4 8.9999999999999997e-02 3.9090879581002376e+01 3.0843236667167051e+01 3.5633627895168260e+01 0 0 0
3019 12 4 8.9999999999999997e-02 3.9548178381662311e+01 3.5279071887660841e+01 3.3584365041247835e+01 0 0 0
3015 12 1 1.4000000000000001e-01 4.0234475108391052e+01 3.3213052373702880e+01 3.3709759236633019e+01 0 0 0
3017 12 4 8.9999999999999997e-02 4.0752495888531648e+01 3.2658779382340150e+01 3.4548055328739267e+01 0 0 0
3116 12 6 -6.6000000000000003e-01 3.9353449531061855e+01 3.4492314228873582e+01 3.6164557876045876e+01 0 0 0
3020 12 4 8.9999999999999997e-02 4.1220119476215807e+01 3.5147047960975293e+01 3.3425237534683525e+01 0 0 0
3016 12 2 -1.7999999999999999e-01 4.0360414400906713e+01 3.4713338668476290e+01 3.3987699726680532e+01 0 0 0
2946 12 2 -1.7999999999999999e-01 4.0905695568239821e+01 3.2790750566292864e+01 3.2394619004192187e+01 0 0 0
3113 12 1 1.4000000000000001e-01 4.0525564582565458e+01 3.5060559580116710e+01 3.5460358709551272e+01 0 0 0
3115 12 4 8.9999999999999997e-02 4.1489588962120067e+01 3.4519032593876176e+01 3.5784969545670990e+01 0 0 0
2949 12 4 8.9999999999999997e-02 4.2051426395589459e+01 3.2712056973901667e+01 3.2519846648087267e+01 0 0 0
2945 12 1 1.4000000000000001e-01 4.0409942619659112e+01 3.1488194449337268e+01 3.1640177033850833e+01 0 0 0
2951 12 5 4.2999999999999999e-01 3.8476352886466060e+01 3.0762756395866436e+01 3.1408903029936674e+01 0 0 0
2948 12 6 -6.6000000000000003e-01 3.9047816371469644e+01 3.1691917933449506e+01 3.1284498911679748e+01 0 0 0
4737 22 4 8.9999999999999997e-02 4.0613706603726932e+01 3.8881193768212633e+01 3.0565120248052867e+01 0 0 1
2947 12 4 8.9999999999999997e-02 4.0341803545168766e+01 3.0690226201031102e+01 3.2462567337036475e+01 0 0 0
3114 12 2 -1.7999999999999999e-01 4.0682868331620710e+01 3.6564733389455540e+01 3.5714945494873007e+01 0 0 0
2974 12 2 -1.7999999999999999e-01 4.1232612895861820e+01 3.1055891382658132e+01 3.0454287983670877e+01 0 0 0
2585 10 5 4.2999999999999999e-01 3.8464458004116565e+01 3.4082751896708658e+01 3.7475230415639317e+01 0 0 0
4865 22 5 4.2999999999999999e-01 3.8484057892091187e+01 3.3380702825764082e+01 3.0772115879395074e+01 0 0 1
4646 21 4 8.9999999999999997e-02 3.1416243482816395e+01 3.8713996488516877e+01 3.7511696448181397e+01 0 0 1
3947 17 6 -6.6000000000000003e-01 4.9779062387555086e+01 4.2925740470528289e+01 3.4524727186333010e+01 -1 1 1
4577 20 4 8.9999999999999997e-02 4.6573033545230167e+01 4.8014229799264257e+01 3.7662063978395757e+01 0 0 0
5129 24 4 8.9999999999999997e-02 3.8408335300298887e+01 3.0254288881323877e+01 3.3401916763762799e+01 0 0 0
3043 12 1 1.4000000000000001e-01 4.1029589105345259e+01 3.6924544294854300e+01 3.7175194785867589e+01 0 0 0
3118 12 4 8.9999999999999997e-02 4.1513244089376663e+01 3.6887922825550177e+01 3.5069535783908229e+01 0 0 0
2504 9 4 8.9999999999999997e-02 4.6234330327787994e+01 4.7181313457716897e+01 3.4253647666188620e+01 0 0 1
3045 12 4 8.9999999999999997e-02 4.0559453041169704e+01 3.6186711497033308e+01 3.7791250274047322e+01 0 0 0
5046 24 6 -6.6000000000000003e-01 4.1082128909258543e+01 3.0272190816389429e+01 3.5633793445541997e+01 0 0 0
3007 12 5 4.2999999999999999e-01 4.8456926148276963e+01 3.3005155392398976e+01 3.7856968835671651e+01 0 0 0
4875 22 4 8.9999999999999997e-02 4.3465723441526748e+01 3.4984692742853149e+01 3.2553549122606555e+01 0 0 1
6397 35 5 4.2999999999999999e-01 4.3749976221035851e+01 3.6013937890629713e+01 3.6653134367258993e+01 0 0 1
4820 22 6 -6.6000000000000003e-01 4.9195982306970592e+01 3.3673986481436053e+01 3.4550911143322679e+01 0 0 1
3069 12 4 8.9999999999999997e-02 4.4457299009650924e+01 3.0440385422443839e+01 3.3913330026572794e+01 0 0 0
6408 35 6 -6.6000000000000003e-01 4.8749850326988266e+01 3.5273148513456682e+01 3.6924500405197371e+01 0 0 1
3104 12 4 8.9999999999999997e-02 4.5805156055302433e+01 3.1130150956641256e+01 3.6306853950849728e+01 0 0 0
4873 22 1 1.4000000000000001e-01 4.4157437954294878e+01 3.4941198125280138e+01 3.1650785404588426e+01 0 0 1
4750 22 6 -6.6000000000000003e-01 4.4709423776063147e+01 3.3263163562234595e+01 3.4190256261137115e+01 0 0 1
4753 22 5 4.2999999999999999e-01 4.4487405904365403e+01 3.3939744686195695e+01 3.5058686492819852e+01 0 0 1
4752 22 4 8.9999999999999997e-02 4.4961965416487018e+01 3.2946847683581538e+01 3.1646438218655298e+01 0 0 1
4748 22 2 -1.7999999999999999e-01 4.5249833394426460e+01 3.3929311075506575e+01 3.1934903677601614e+01 0 0 1
4821 22 4 8.9999999999999997e-02 4.6941672513853419e+01 3.2102707234916068e+01 3.3390253826146790e+01 0 0 1
4749 22 4 8.9999999999999997e-02 4.6039747190246544e+01 3.4875964465994613e+01 3.3733786865048110e+01 0 0 1
4747 22 1 1.4000000000000001e-01 4.5763100367370271e+01 3.3859975967900816e+01 3.3400224822156723e+01 0 0 1
4819 22 4 8.9999999999999997e-02 4.8202148697811879e+01 3.4872929601853308e+01 3.3293223284119676e+01 0 0 1
4818 22 2 -1.7999999999999999e-01 4.7048691604656455e+01 3.3089048324360746e+01 3.3746362847642835e+01 0 0 1
4817 22 1 1.4000000000000001e-01 4.8335726232070947e+01 3.3789192369123384e+01 3.3377812253474765e+01 0 0 1
4822 22 4 8.9999999999999997e-02 4.6996433699968001e+01 3.3042896022130968e+01 3.4837021857371319e+01 0 0 1
4751 22 4 8.9999999999999997e-02 4.6079346360916659e+01 3.4154645605387870e+01 3.1228170815744054e+01 0 0 1
6394 35 6 -6.6000000000000003e-01 4.4387881027296800e+01 3.5220004942939035e+01 3.6330667265057762e+01 0 0 1
6407 35 4 8.9999999999999997e-02 4.6952606520402682e+01 3.6103237590851528e+01 3.6203872420855966e+01 0 0 1
4755 22 2 -1.7999999999999999e-01 4.9169003795593014e+01 3.3408800186793300e+01 3.2162773455101579e+01 0 0 1
4756 22 4 8.9999999999999997e-02 4.8810398721510502e+01 3.1294163265353674e+01 3.1765470468499597e+01 0 0 1
6405 35 1 1.4000000000000001e-01 4.7941090944759857e+01 3.6456445699502304e+01 3.6655591557656038e+01 0 0 1
6411 35 5 4.2999999999999999e-01 4.8824942334615585e+01 3.4773059169461142e+01 3.5979562569268843e+01 0 0 1
4759 22 4 8.9999999999999997e-02 4.8559453127619847e+01 3.3616301915235915e+01 3.1271832094787705e+01 0 0 1
4754 22 1 1.4000000000000001e-01 4.9665890762366104e+01 3.1942944928433125e+01 3.2073783023517109e+01 0 0 1
4877 22 4 8.9999999999999997e-02 4.5555895647047819e+01 3.6484861962094307e+01 3.0968801297479182e+01 0 0 1
3097 12 4 8.9999999999999997e-02 4.4913721186093888e+01 3.0383334945255214e+01 3.1758155626300070e+01 0 0 0
2975 12 4 8.9999999999999997e-02 4.2523026795148972e+01 3.0183202690010813e+01 3.1803905524291832e+01 0 0 0
6391 35 1 1.4000000000000001e-01 4.4887177058987632e+01 3.4733801268428579e+01 3.7571167230585559e+01 0 0 1
4874 22 2 -1.7999999999999999e-01 4.4730349481586607e+01 3.6356667229389934e+01 3.1677333050510594e+01 0 0 1
6400 35 4 8.9999999999999997e-02 4.7231257264603926e+01 3.7143389016438405e+01 3.4383759020523321e+01 0 0 1
4876 22 6 -6.6000000000000003e-01 4.3440018242747669e+01 3.4678045360833202e+01 3.0483072779201006e+01 0 0 1
4551 20 4 8.9999999999999997e-02 4.5983351237365511e+01 4.5876230676984811e+01 3.7975555454499990e+01 0 0 0
6406 35 2 -1.7999999999999999e-01 4.8683474270596918e+01 3.7476892717597799e+01 3.5771595876829487e+01 0 0 1
6484 35 4 8.9999999999999997e-02 4.3930590027856177e+01 3.2720108218535842e+01 3.7675036182797832e+01 0 0 1
4863 22 4 8.9999999999999997e-02 3.5969929406924344e+01 3.3932979050233051e+01 3.0444335095043527e+01 0 0 1
2394 9 4 8.9999999999999997e-02 4.7035179369914140e+01 4.6829926736026827e+01 3.1075960792355197e+01 0 0 1
2060 8 2 -1.7999999999999999e-01 3.5111039325179163e+01 4.5829946901550898e+01 3.7900654079254480e+01 0 0 0
2291 8 4 8.9999999999999997e-02 4.8163121963273348e+01 4.9912947200875891e+01 3.5217279947330596e+01 0 0 0
4674 21 4 8.9999999999999997e-02 3.1339089896993759e+01 3.6964161770360860e+01 3.0856458165976996e+01 0 0 1
4610 21 4 8.9999999999999997e-02 3.3061192778690440e+01 3.6902417105183176e+01 3.4162448264117828e+01 0 0 1
4786 22 4 8.9999999999999997e-02 3.5228374570166537e+01 3.7456963002084969e+01 3.3136951474802665e+01 0 0 1
6410 35 4 8.9999999999999997e-02 4.9565330526559400e+01 3.6947338255871308e+01 3.5377273613039058e+01 0 0 1
2503 9 4 8.9999999999999997e-02 4.4874818980547886e+01 4.6077041369373390e+01 3.3809360674226554e+01 0 0 1
5401 26 5 4.2999999999999999e-01 3.2086227875653400e+01 3.3118426299071437e+01 3.7496791279400604e+01 0 0 0
2492 9 4 8.9999999999999997e-02 4.9112855854974931e+01 4.8291125671547604e+01 3.0315735889943767e+01 0 0 1
5052 24 4 8.9999999999999997e-02 3.8752863779556705e+01 3.1510226533528737e+01 3.7667543639157913e+01 0 0 0
2717 10 4 8.9999999999999997e-02 3.6319805917032156e+01 3.8887230014182997e+01 3.7406413703117423e+01 0 0 0
4673 21 4 8.9999999999999997e-02 3.3194340517728037e+01 3.6803199648829803e+01 3.1307203382669467e+01 0 0 1
4607 21 2 -1.7999999999999999e-01 3.2036043623126098e+01 3.7009655296081746e+01 3.3744795677467167e+01 0 0 1
1122 4 4 8.9999999999999997e-02 3.0814062041703952e+01 4.2111106767268417e+01 3.5638339932750632e+01 1 0 0
4675 21 5 4.2999999999999999e-01 3.2934463786016870e+01 3.9391518952562755e+01 3.4105955785501564e+01 0 0 1
4672 21 6 -6.6000000000000003e-01 3.3003419737664380e+01 3.9149599829927482e+01 3.3058577032863788e+01 0 0 1
4606 21 1 1.4000000000000001e-01 3.1084113622175774e+01 3.7296293182254381e+01 3.4964014808030470e+01 0 0 1
1121 4 4 8.9999999999999997e-02 3.1059720564712862e+01 4.0676800251486050e+01 3.6567378793477843e+01 1 0 0
4626 21 5 4.2999999999999999e-01 3.2792946892710667e+01 3.9890497605096229e+01 3.1545039937375986e+01 0 0 1
4670 21 2 -1.7999999999999999e-01 3.2241859747674425e+01 3.7485787376089689e+01 3.1237618515965529e+01 0 0 1
4608 21 4 8.9999999999999997e-02 3.1345780693843256e+01 3.8330382577567462e+01 3.5268916189528419e+01 0 0 1
4671 21 4 8.9999999999999997e-02 3.0943076871136928e+01 3.8394414084219314e+01 3.2560092752734604e+01 0 0 1
4669 21 1 1.4000000000000001e-01 3.1994196934042190e+01 3.8077613617211142e+01 3.2660421083246995e+01 0 0 1
1118 4 2 -1.7999999999999999e-01 3.1430040480975538e+01 4.1747547806826297e+01 3.6454051867236117e+01 1 0 0
999 4 2 -1.7999999999999999e-01 3.3293888415548395e+01 4.2720591888205902e+01 3.4943923618831377e+01 1 0 0
1117 4 1 1.4000000000000001e-01 3.2887469785274838e+01 4.1707429700906623e+01 3.5975157955701228e+01 1 0 0
1001 4 6 -6.6000000000000003e-01 3.4987102436280558e+01 4.1513843474250791e+01 3.3810454014223041e+01 1 0 0
1004 4 5 4.2999999999999999e-01 3.5707428570353336e+01 4.1803685359483040e+01 3.3038792073709836e+01 1 0 0
1120 4 6 -6.6000000000000003e-01 3.3191450827897071e+01 4.0404206691240709e+01 3.5443993190736407e+01 1 0 0
1123 4 5 4.2999999999999999e-01 3.4116228226123638e+01 4.0630978451871883e+01 3.4860737247002731e+01 1 0 0
1119 4 4 8.9999999999999997e-02 3.3568823418835024e+01 4.1865357925700948e+01 3.6822547161699504e+01 1 0 0
1002 4 4 8.9999999999999997e-02 3.2635951659683776e+01 4.2568106968856796e+01 3.4036421027057848e+01 1 0 0
998 4 1 1.4000000000000001e-01 3.4777712316876084e+01 4.2707175317296709e+01 3.4542108514491858e+01 1 0 0
4623 21 6 -6.6000000000000003e-01 3.2572674250015275e+01 3.9901389577639975e+01 3.0455365994980806e+01 0 0 1
4787 22 4 8.9999999999999997e-02 3.6022352254329078e+01 3.8870934814960748e+01 3.2681408826624391e+01 0 0 1
6846 39 4 8.9999999999999997e-02 3.0566647436814989e+01 4.0083457406994640e+01 3.3878716328147092e+01 1 0 1
4783 22 2 -1.7999999999999999e-01 3.6212394146042328e+01 3.7899531773829310e+01 3.3256223165991379e+01 0 0 1
4885 22 4 8.9999999999999997e-02 3.5716690534088045e+01 3.7867292708064618e+01 3.5409848417486685e+01 0 0 1
5049 24 5 4.2999999999999999e-01 4.1482795212305170e+01 3.0739559684779859e+01 3.6513998299605561e+01 0 0 0
4603 21 4 8.9999999999999997e-02 3.5403085902133363e+01 4.3259732260723240e+01 3.0201978918424519e+01 0 0 1
1000 4 4 8.9999999999999997e-02 3.5338752078951515e+01 4.2594987883750917e+01 3.5493461769915200e+01 1 0 0
4602 21 6 -6.6000000000000003e-01 3.6832436912784033e+01 4.1626656247390009e+01 3.1068969742635467e+01 0 0 1
4565 20 4 8.9999999999999997e-02 3.9615668537262287e+01 4.9501796933507187e+01 3.0895755603200612e+01 0 0 0
4784 22 4 8.9999999999999997e-02 3.7819270793660394e+01 3.6409798797627950e+01 3.3002318748268081e+01 0 0 1
2493 9 5 4.2999999999999999e-01 4.6018856600413343e+01 4.9292314639269307e+01 3.2682388099260848e+01 0 0 1
2502 9 4 8.9999999999999997e-02 4.6534312664502124e+01 4.5803534193204399e+01 3.3057526240529057e+01 0 0 1
4884 22 3 -2.7000000000000002e-01 3.6622667673261660e+01 3.7978434073045229e+01 3.4766314846040991e+01 0 0 1
3117 12 4 8.9999999999999997e-02 3.9777574468222667e+01 3.7119780136253397e+01 3.5369392838091251e+01 0 0 0
4886 22 4 8.9999999999999997e-02 3.7295666842171926e+01 3.7177068695871050e+01 3.5084844300932552e+01 0 0 1
4815 22 4 8.9999999999999997e-02 3.8554799112439937e+01 3.7285897974881735e+01 3.0704854987579534e+01 0 0 1
4887 22 4 8.9999999999999997e-02 3.7113662298385364e+01 3.8915173089422936e+01 3.4905365318889089e+01 0 0 1
4814 22 4 8.9999999999999997e-02 3.7357990473486247e+01 3.8570201321065845e+01 3.0983372921751997e+01 0 0 1
4836 22 4 8.9999999999999997e-02 4.2484370502286566e+01 3.7284835506140183e+01 3.3317831912985881e+01 0 0 1
3046 12 6 -6.6000000000000003e-01 4.2404582862176923e+01 3.7026439565116803e+01 3.7382670375616087e+01 0 0 0
4782 22 1 1.4000000000000001e-01 3.7178555306794919e+01 3.7068739393782359e+01 3.2364626970956913e+01 0 0 1
1984 7 6 -6.6000000000000003e-01 3.9166278825656534e+01 4.1349966070610442e+01 3.7115391149416375e+01 0 0 0
1981 7 1 1.4000000000000001e-01 3.9355788645347396e+01 4.2774637517531957e+01 3.7004655653043216e+01 0 0 0
1949 7 6 -6.6000000000000003e-01 3.9931171761919394e+01 4.5825555623744528e+01 3.0341509964372140e+01 0 0 0
4605 21 5 4.2999999999999999e-01 3.7783752336000752e+01 4.1113570436346812e+01 3.1107885106459825e+01 0 0 1
4811 22 2 -1.7999999999999999e-01 3.8079177422925241e+01 3.7909915614277729e+01 3.1518164275933884e+01 0 0 1
4810 22 1 1.4000000000000001e-01 3.9231653619400220e+01 3.8780619863235259e+01 3.2212850304275456e+01 0 0 1
4812 22 4 8.9999999999999997e-02 3.9219770208428066e+01 3.8442573496060632e+01 3.3314598993240203e+01 0 0 1
4738 22 4 8.9999999999999997e-02 4.0684379054811117e+01 3.7398215332911718e+01 3.1528376616469519e+01 0 0 1
4734 22 2 -1.7999999999999999e-01 4.0598655217069862e+01 3.8473974808359344e+01 3.1609848660753975e+01 0 0 1
3047 12 4 8.9999999999999997e-02 4.0610592781295793e+01 3.9050964859050026e+01 3.7094576716288216e+01 0 0 0
4733 22 1 1.4000000000000001e-01 4.1812329533377707e+01 3.9122171167744519e+01 3.2391658081308371e+01 0 0 1
4735 22 4 8.9999999999999997e-02 4.1448726175666259e+01 3.9483942773467106e+01 3.3384515042968815e+01 0 0 1
4813 22 6 -6.6000000000000003e-01 3.8908822079503125e+01 4.0204798776122168e+01 3.2044478247152398e+01 0 0 1
1893 7 6 -6.6000000000000003e-01 3.9212241813458462e+01 4.1418502097883270e+01 3.4436484009069346e+01 0 0 0
4816 22 5 4.2999999999999999e-01 3.9109472163525979e+01 4.0775013649827414e+01 3.2948989542701696e+01 0 0 1
1896 7 5 4.2999999999999999e-01 3.8971277794352304e+01 4.1224717622376986e+01 3.5461163056123802e+01 0 0 0
4736 22 6 -6.6000000000000003e-01 4.2360014117117721e+01 4.0237844962487145e+01 3.1591865391645037e+01 0 0 1
4832 22 2 -1.7999999999999999e-01 4.2988814598668611e+01 3.8096253402867504e+01 3.2702125639614351e+01 0 0 1
1890 7 1 1.4000000000000001e-01 3.9389908669036060e+01 4.2871643385332533e+01 3.4425721592430186e+01 0 0 0
1976 7 4 8.9999999999999997e-02 4.0528801827156670e+01 4.2474828121780483e+01 3.2106734122557860e+01 0 0 0
1894 7 4 8.9999999999999997e-02 4.1613119406843424e+01 4.2374169400575283e+01 3.4569232816828318e+01 0 0 0
1983 7 4 8.9999999999999997e-02 4.0484166231042600e+01 4.2983603979586917e+01 3.6903951904531851e+01 0 0 0
1977 7 6 -6.6000000000000003e-01 4.2607746547803409e+01 4.2814338108330901e+01 3.2514084785197568e+01 0 0 0
1980 7 5 4.2999999999999999e-01 4.2475785119677163e+01 4.1733232559796811e+01 3.2230307884789411e+01 0 0 0
1986 7 4 8.9999999999999997e-02 3.7710097644403348e+01 4.3283139554235532e+01 3.5589279169339498e+01 0 0 0
4833 22 4 8.9999999999999997e-02 4.2909672687755574e+01 3.7007509684141809e+01 3.0785485531069920e+01 0 0 1
3048 12 4 8.9999999999999997e-02 3.9132581077037237e+01 3.7992213620240918e+01 3.7514444470602228e+01 0 0 0
1891 7 2 -1.7999999999999999e-01 4.0901468655125463e+01 4.3122180529562513e+01 3.4115979099582781e+01 0 0 0
1982 7 2 -1.7999999999999999e-01 3.8818980421092697e+01 4.3470160153343400e+01 3.5755171809009518e+01 0 0 0
4739 22 5 4.2999999999999999e-01 4.3332359344386951e+01 3.9861297929029931e+01 3.1388972430125321e+01 0 0 1
3044 12 2 -1.7999999999999999e-01 4.0234759179364886e+01 3.8165740943692271e+01 3.7691509047251792e+01 0 0 0
2013 7 4 8.9999999999999997e-02 4.7420581933847544e+01 4.1868812092083388e+01 3.0431919082609099e+01 0 0 0
4878 22 4 8.9999999999999997e-02 4.5164448272065940e+01 3.6507185462949302e+01 3.2737705916431231e+01 0 0 1
6409 35 4 8.9999999999999997e-02 4.9008111210492451e+01 3.8296375868453794e+01 3.6435861754475965e+01 0 0 1
6865 40 1 1.4000000000000001e-01 3.0249406827791717e+01 4.6146072866665449e+01 3.6304294017912348e+01 -1 0 0
1957 7 4 8.9999999999999997e-02 4.2852817950280695e+01 4.2047849476371731e+01 3.7460739120816442e+01 0 0 0
4835 22 4 8.9999999999999997e-02 4.3722977317043934e+01 3.8474845161794121e+01 3.3383474278648031e+01 0 0 1
4620 21 1 1.4000000000000001e-01 3.2592739117350632e+01 3.8455956972709622e+01 3.0132378732018282e+01 0 0 1
6403 35 4 8.9999999999999997e-02 4.9239483966380220e+01 3.9292111345773520e+01 3.3325116391076421e+01 0 0 1
6421 35 4 8.9999999999999997e-02 4.7608420302603378e+01 3.6949543097256075e+01 3.2017361853360761e+01 0 0 1
4831 22 1 1.4000000000000001e-01 4.3677466616872636e+01 3.7500720503820006e+01 3.1444005643622393e+01 0 0 1
4837 22 5 4.2999999999999999e-01 4.5258834905212275e+01 3.8674603172280683e+01 3.1293009538368413e+01 0 0 1
4834 22 6 -6.6000000000000003e-01 4.4329738708935920e+01 3.8603038831279420e+01 3.0810453780899508e+01 0 0 1
1875 7 5 4.2999999999999999e-01 4.3487782073506935e+01 3.9795452019744936e+01 3.7381230999688349e+01 0 0 0
6424 35 4 8.9999999999999997e-02 4.8980241614658709e+01 3.9277049819927029e+01 3.0701547631362363e+01 0 0 1
3949 17 4 8.9999999999999997e-02 4.8627119835415492e+01 4.2149224903217316e+01 3.6441071973440998e+01 -1 1 1
1956 7 6 -6.6000000000000003e-01 4.3998944083388132e+01 4.0321132598450284e+01 3.5840321867216417e+01 0 0 0
2050 7 5 4.2999999999999999e-01 4.3970172845097082e+01 4.2018827627940382e+01 3.3245007812811679e+01 0 0 0
1959 7 5 4.2999999999999999e-01 4.4453168701256679e+01 4.0384753673672023e+01 3.4842863593160686e+01 0 0 0
1955 7 4 8.9999999999999997e-02 4.5717125791399802e+01 4.1089697651066032e+01 3.6857003345610792e+01 0 0 0
6401 35 6 -6.6000000000000003e-01 4.7038234058553606e+01 3.9100034455464112e+01 3.5031343249141315e+01 0 0 1
6398 35 1 1.4000000000000001e-01 4.7896972735077306e+01 3.7983892072656182e+01 3.4587089877586607e+01 0 0 1
6404 35 5 4.2999999999999999e-01 4.6584541483949302e+01 3.9614612861459349e+01 3.4143442709962358e+01 0 0 1
6422 35 6 -6.6000000000000003e-01 4.6815649824246208e+01 3.9027740835367787e+01 3.1994779713391797e+01 0 0 1
6420 35 2 -1.7999999999999999e-01 4.8760805394050507e+01 3.8213502680560921e+01 3.0792464521426606e+01 0 0 1
6419 35 1 1.4000000000000001e-01 4.7930923059010539e+01 3.8046588262591364e+01 3.2039222198883088e+01 0 0 1
6399 35 2 -1.7999999999999999e-01 4.8769228563322116e+01 3.8242954795558191e+01 3.3349877708614166e+01 0 0 1
6425 35 5 4.2999999999999999e-01 4.7321072782393273e+01 3.9944703457302367e+01 3.1903715208442605e+01 0 0 1
2014 7 4 8.9999999999999997e-02 4.5976841888159186e+01 4.1629668535384880e+01 3.1362247092268692e+01 0 0 0
2046 7 4 8.9999999999999997e-02 4.6538182939632463e+01 4.1510549679752266e+01 3.4779586182623952e+01 0 0 0
1953 7 1 1.4000000000000001e-01 4.4661814503030058e+01 4.1387908330225223e+01 3.6479056816316216e+01 0 0 0
1865 7 6 -6.6000000000000003e-01 4.8096763895171478e+01 4.1663765188137951e+01 3.2818126935958546e+01 0 0 0
2010 7 2 -1.7999999999999999e-01 4.6706075500682580e+01 4.2356547089848583e+01 3.1069977496827896e+01 0 0 0
2044 7 1 1.4000000000000001e-01 4.5711104143334680e+01 4.2101791130246134e+01 3.4334816286334210e+01 0 0 0
1868 7 5 4.2999999999999999e-01 4.8667879895615314e+01 4.2091692751925201e+01 3.3670409974844610e+01 0 0 0
2047 7 6 -6.6000000000000003e-01 4.4840264385607547e+01 4.1321832208114003e+01 3.3462300562502215e+01 0 0 0
2045 7 2 -1.7999999999999999e-01 4.4853136308998202e+01 4.2508356839838669e+01 3.5526341130209751e+01 0 0 0
1862 7 1 1.4000000000000001e-01 4.7357022957820725e+01 4.2821462366350985e+01 3.2375359450096475e+01 0 0 0
2049 7 4 8.9999999999999997e-02 4.3834733922173882e+01 4.2710509380195219e+01 3.5091434547977769e+01 0 0 0
1863 7 2 -1.7999999999999999e-01 4.6426686638868844e+01 4.3229738184716091e+01 3.3544618671896586e+01 0 0 0
3945 17 2 -1.7999999999999999e-01 4.9613320559987272e+01 4.1633901757635925e+01 3.6537195805078596e+01 -1 1 1
2048 7 4 8.9999999999999997e-02 4.5268269548139763e+01 4.3317900638254983e+01 3.6096454009405115e+01 0 0 0
3004 12 6 -6.6000000000000003e-01 4.8135002099375903e+01 3.2029711407517865e+01 3.7666556342749047e+01 0 0 0
1954 7 2 -1.7999999999999999e-01 4.3919337417810674e+01 4.1755743808975431e+01 3.7759316488187181e+01 0 0 0
6402 35 4 8.9999999999999997e-02 4.9641726462632093e+01 3.7590382506100539e+01 3.3372125537642539e+01 0 0 1
6423 35 4 8.9999999999999997e-02 4.9750575920509874e+01 3.7680866885688630e+01 3.0906576775444879e+01 0 0 1
2064 8 4 8.9999999999999997e-02 3.5737105935644202e+01 4.4923937258854167e+01 3.7839716903676539e+01 0 0 0
1267 4 4 8.9999999999999997e-02 3.4851279874696097e+01 4.3733617686346086e+01 3.2694420364882191e+01 1 0 0
5050 24 1 1.4000000000000001e-01 3.8510792719424018e+01 3.0455760469715944e+01 3.7980407513251016e+01 0 0 0
1003 4 4 8.9999999999999997e-02 3.3075648615835661e+01 4.3729227061046231e+01 3.5334767782346638e+01 1 0 0
1266 4 4 8.9999999999999997e-02 3.6292346873960156e+01 4.3746717050117851e+01 3.3635995442087221e+01 1 0 0
4575 20 4 8.9999999999999997e-02 4.8194121024081284e+01 4.8639997543161755e+01 3.7925957817525102e+01 0 0 0
1166 4 1 1.4000000000000001e-01 3.1259405954858249e+01 4.2565547092762813e+01 3.7756967974857012e+01 1 0 0
1864 7 4 8.9999999999999997e-02 4.8141153122920819e+01 4.3622639934364919e+01 3.2230123018034433e+01 0 0 0
5012 23 4 8.9999999999999997e-02 4.9835309851143670e+01 4.5967418511315365e+01 3.2524269705246496e+01 0 0 1
2009 7 1 1.4000000000000001e-01 4.5950671325447999e+01 4.3417061904665701e+01 3.0252094670683995e+01 0 0 0
2487 9 1 1.4000000000000001e-01 4.7698779887679429e+01 4.8572239875152952e+01 3.1967913431402433e+01 0 0 1
4552 20 6 -6.6000000000000003e-01 4.7098941461706325e+01 4.4085871048163781e+01 3.7913681915999305e+01 0 0 0
1264 4 3 -2.7000000000000002e-01 3.5226297732421699e+01 4.3881713564050649e+01 3.3702482460812334e+01 1 0 0
2977 12 4 8.9999999999999997e-02 4.1715435327446528e+01 3.2038571054003363e+01 3.0166398138436360e+01 0 0 0
6891 40 4 8.9999999999999997e-02 3.0475298263077853e+01 4.7855163562173821e+01 3.1885873321954307e+01 -1 0 0
6879 40 1 1.4000000000000001e-01 3.0190202820541849e+01 4.5855560860163557e+01 3.1394342430097456e+01 -1 0 0
2262 8 1 1.4000000000000001e-01 3.5856296544595217e+01 4.9356847689259233e+01 3.2505712345556951e+01 0 0 0
2267 8 4 8.9999999999999997e-02 3.4303805650066124e+01 4.8589851311256517e+01 3.3850156961369201e+01 0 0 0
2246 8 4 8.9999999999999997e-02 3.4522860198284263e+01 4.8661618602826920e+01 3.0907530665588681e+01 0 0 0